<?xml version="1.0" encoding="UTF-8"?>

<!-- generated on 2025-11-14 17:06:38 by Eclipse SUMO libsumo Version 1.24.0
<libsumoConfiguration xmlns:xsi="http://www.w3.org/2001/XMLSchema-instance" xsi:noNamespaceSchemaLocation="http://sumo.dlr.de/xsd/libsumoConfiguration.xsd">

    <input>
        <net-file value="C:\Users\kurganov\workspace\Smart_city\sumo_config\2025-09-20-14-52-18\osm.net.xml.gz"/>
        <route-files value="C:\Users\kurganov\workspace\Smart_city\sumo_config\2025-09-20-14-52-18\osm_pt.rou.xml,C:\Users\kurganov\workspace\Smart_city\sumo_config\2025-09-20-14-52-18\osm.bus.trips.xml,C:\Users\kurganov\workspace\Smart_city\sumo_config\2025-09-20-14-52-18\osm.passenger.trips.xml"/>
        <additional-files value="C:\Users\kurganov\workspace\Smart_city\sumo_config\2025-09-20-14-52-18\osm.poly.xml.gz,C:\Users\kurganov\workspace\Smart_city\sumo_config\2025-09-20-14-52-18\osm_stops.add.xml,C:\Users\kurganov\workspace\Smart_city\sumo_config\2025-09-20-14-52-18\output.add.xml"/>
    </input>

    <output>
        <tripinfo-output value="C:\Users\kurganov\workspace\Smart_city\sumo_config\2025-09-20-14-52-18\tripinfos.xml"/>
        <stop-output value="C:\Users\kurganov\workspace\Smart_city\sumo_config\2025-09-20-14-52-18\stopinfos.xml"/>
        <statistic-output value="C:\Users\kurganov\workspace\Smart_city\sumo_config\2025-09-20-14-52-18\stats.xml"/>
    </output>

    <processing>
        <ignore-route-errors value="true"/>
        <tls.actuated.jam-threshold value="30"/>
    </processing>

    <routing>
        <device.rerouting.adaptation-steps value="18"/>
        <device.rerouting.adaptation-interval value="10"/>
    </routing>

    <report>
        <verbose value="false"/>
        <no-warnings value="true"/>
        <duration-log.statistics value="true"/>
        <no-step-log value="true"/>
    </report>

    <random_number>
        <seed value="42"/>
    </random_number>

    <gui_only>
        <gui-settings-file value="C:\Users\kurganov\workspace\Smart_city\sumo_config\2025-09-20-14-52-18\osm.view.xml"/>
    </gui_only>

</libsumoConfiguration>
-->

<meandata xmlns:xsi="http://www.w3.org/2001/XMLSchema-instance" xsi:noNamespaceSchemaLocation="http://sumo.dlr.de/xsd/meandata_file.xsd">
    <interval begin="0.00" end="3600.00" id="wizard_example">
        <edge id="-103855914#1" sampledSeconds="156.62" traveltime="12.57" overlapTraveltime="13.70" density="0.27" laneDensity="0.27" occupancy="0.20" waitingTime="0.00" timeLoss="13.29" speed="12.57" speedRelative="0.90" departed="12" arrived="0" entered="0" left="12" laneChangedFrom="0" laneChangedTo="0"/>
        <edge id="-103907907" sampledSeconds="15.63" traveltime="0.56" overlapTraveltime="2.46" density="1.91" laneDensity="1.91" occupancy="0.33" waitingTime="0.00" timeLoss="6.16" speed="3.63" speedRelative="0.26" departed="0" arrived="3" entered="8" left="5" laneChangedFrom="0" laneChangedTo="0"/>
        <edge id="-103999075#0" sampledSeconds="0.00" departed="0" arrived="0" entered="0" left="0" laneChangedFrom="0" laneChangedTo="0"/>
        <edge id="-103999075#1" sampledSeconds="0.00" departed="0" arrived="0" entered="0" left="0" laneChangedFrom="0" laneChangedTo="0"/>
        <edge id="-103999078#0" sampledSeconds="86.15" traveltime="13.64" overlapTraveltime="14.51" density="0.14" laneDensity="0.14" occupancy="0.09" waitingTime="0.00" timeLoss="15.37" speed="11.84" speedRelative="0.85" departed="2" arrived="1" entered="4" left="5" laneChangedFrom="0" laneChangedTo="0"/>
        <edge id="-103999078#1" sampledSeconds="32.52" traveltime="5.95" overlapTraveltime="6.54" density="0.13" laneDensity="0.13" occupancy="0.10" waitingTime="0.00" timeLoss="7.30" speed="11.53" speedRelative="0.83" departed="0" arrived="1" entered="5" left="4" laneChangedFrom="0" laneChangedTo="0"/>
        <edge id="-103999078#2" sampledSeconds="49.70" traveltime="24.44" overlapTraveltime="25.81" density="0.06" laneDensity="0.06" occupancy="0.07" waitingTime="0.00" timeLoss="14.63" speed="9.63" speedRelative="0.69" departed="1" arrived="1" entered="1" left="1" laneChangedFrom="0" laneChangedTo="0"/>
        <edge id="-103999087#0" sampledSeconds="187.03" traveltime="22.26" overlapTraveltime="23.53" density="0.21" laneDensity="0.21" occupancy="0.16" waitingTime="5.00" timeLoss="35.73" speed="10.91" speedRelative="0.79" departed="1" arrived="1" entered="7" left="7" laneChangedFrom="0" laneChangedTo="0"/>
        <edge id="-103999087#1" sampledSeconds="81.39" traveltime="7.98" overlapTraveltime="9.36" density="0.30" laneDensity="0.30" occupancy="0.23" waitingTime="0.00" timeLoss="25.35" speed="8.89" speedRelative="0.64" departed="2" arrived="2" entered="7" left="7" laneChangedFrom="0" laneChangedTo="0"/>
        <edge id="-103999087#2" sampledSeconds="31.37" traveltime="2.37" overlapTraveltime="3.10" density="0.38" laneDensity="0.38" occupancy="0.23" waitingTime="0.00" timeLoss="8.48" speed="9.90" speedRelative="0.71" departed="2" arrived="4" entered="9" left="7" laneChangedFrom="0" laneChangedTo="0"/>
        <edge id="-103999087#3" sampledSeconds="71.13" traveltime="6.66" overlapTraveltime="7.17" density="0.25" laneDensity="0.25" occupancy="0.15" waitingTime="0.00" timeLoss="8.20" speed="11.94" speedRelative="0.86" departed="1" arrived="1" entered="9" left="9" laneChangedFrom="0" laneChangedTo="0"/>
        <edge id="-103999087#4" sampledSeconds="39.54" traveltime="3.76" overlapTraveltime="4.43" density="0.39" laneDensity="0.39" occupancy="0.20" waitingTime="0.00" timeLoss="16.59" speed="7.85" speedRelative="0.57" departed="0" arrived="0" entered="9" left="9" laneChangedFrom="0" laneChangedTo="0"/>
        <edge id="-103999104#0" sampledSeconds="334.66" traveltime="21.38" overlapTraveltime="22.41" density="0.37" laneDensity="0.37" occupancy="0.23" waitingTime="0.00" timeLoss="44.55" speed="11.43" speedRelative="0.82" departed="3" arrived="2" entered="12" left="13" laneChangedFrom="0" laneChangedTo="0"/>
        <edge id="-103999104#1" sampledSeconds="76.99" traveltime="6.54" overlapTraveltime="7.23" density="0.30" laneDensity="0.30" occupancy="0.19" waitingTime="0.00" timeLoss="15.75" speed="10.88" speedRelative="0.78" departed="2" arrived="3" entered="9" left="8" laneChangedFrom="0" laneChangedTo="0"/>
        <edge id="-103999104#2" sampledSeconds="23.63" traveltime="1.98" overlapTraveltime="2.47" density="0.35" laneDensity="0.35" occupancy="0.16" waitingTime="0.00" timeLoss="6.75" speed="9.98" speedRelative="0.72" departed="2" arrived="1" entered="8" left="9" laneChangedFrom="0" laneChangedTo="0"/>
        <edge id="-103999104#3" sampledSeconds="62.96" traveltime="6.54" overlapTraveltime="7.00" density="0.21" laneDensity="0.21" occupancy="0.11" waitingTime="0.00" timeLoss="4.58" speed="12.66" speedRelative="0.91" departed="0" arrived="1" entered="9" left="8" laneChangedFrom="0" laneChangedTo="0"/>
        <edge id="-103999104#4" sampledSeconds="44.72" traveltime="4.15" overlapTraveltime="4.67" density="0.41" laneDensity="0.41" occupancy="0.20" waitingTime="0.00" timeLoss="19.39" speed="7.69" speedRelative="0.55" departed="2" arrived="1" entered="8" left="9" laneChangedFrom="0" laneChangedTo="0"/>
        <edge id="-103999107#0" sampledSeconds="181.01" traveltime="21.46" overlapTraveltime="22.92" density="0.20" laneDensity="0.20" occupancy="0.15" waitingTime="4.00" timeLoss="36.43" speed="11.16" speedRelative="0.80" departed="3" arrived="3" entered="5" left="5" laneChangedFrom="0" laneChangedTo="0"/>
        <edge id="-103999107#1" sampledSeconds="45.27" traveltime="22.60" overlapTraveltime="23.30" density="0.05" laneDensity="0.05" occupancy="0.05" waitingTime="0.00" timeLoss="8.95" speed="10.41" speedRelative="0.75" departed="1" arrived="1" entered="1" left="1" laneChangedFrom="0" laneChangedTo="0"/>
        <edge id="-104071721#0" sampledSeconds="0.00" departed="0" arrived="0" entered="0" left="0" laneChangedFrom="0" laneChangedTo="0"/>
        <edge id="-104071721#1" sampledSeconds="0.00" departed="0" arrived="0" entered="0" left="0" laneChangedFrom="0" laneChangedTo="0"/>
        <edge id="-104071721#2" sampledSeconds="0.00" departed="0" arrived="0" entered="0" left="0" laneChangedFrom="0" laneChangedTo="0"/>
        <edge id="-104071734#0" sampledSeconds="0.00" departed="0" arrived="0" entered="0" left="0" laneChangedFrom="0" laneChangedTo="0"/>
        <edge id="-104500199" sampledSeconds="0.00" departed="0" arrived="0" entered="0" left="0" laneChangedFrom="0" laneChangedTo="0"/>
        <edge id="-1052526173#0" sampledSeconds="0.00" departed="0" arrived="0" entered="0" left="0" laneChangedFrom="0" laneChangedTo="0"/>
        <edge id="-1052526173#1" sampledSeconds="0.00" departed="0" arrived="0" entered="0" left="0" laneChangedFrom="0" laneChangedTo="0"/>
        <edge id="-1052526173#2" sampledSeconds="0.00" departed="0" arrived="0" entered="0" left="0" laneChangedFrom="0" laneChangedTo="0"/>
        <edge id="-1055495280" sampledSeconds="0.00" departed="0" arrived="0" entered="0" left="0" laneChangedFrom="0" laneChangedTo="0"/>
        <edge id="-105551742#0" sampledSeconds="0.00" departed="0" arrived="0" entered="0" left="0" laneChangedFrom="0" laneChangedTo="0"/>
        <edge id="-105551742#1" sampledSeconds="0.00" departed="0" arrived="0" entered="0" left="0" laneChangedFrom="0" laneChangedTo="0"/>
        <edge id="-105551742#2" sampledSeconds="0.00" departed="0" arrived="0" entered="0" left="0" laneChangedFrom="0" laneChangedTo="0"/>
        <edge id="-105551742#3" sampledSeconds="0.00" departed="0" arrived="0" entered="0" left="0" laneChangedFrom="0" laneChangedTo="0"/>
        <edge id="-1064346092" sampledSeconds="0.00" departed="0" arrived="0" entered="0" left="0" laneChangedFrom="0" laneChangedTo="0"/>
        <edge id="-106993840" sampledSeconds="0.00" departed="0" arrived="0" entered="0" left="0" laneChangedFrom="0" laneChangedTo="0"/>
        <edge id="-108126733" sampledSeconds="0.00" departed="0" arrived="0" entered="0" left="0" laneChangedFrom="0" laneChangedTo="0"/>
        <edge id="-108126734" sampledSeconds="0.00" departed="0" arrived="0" entered="0" left="0" laneChangedFrom="0" laneChangedTo="0"/>
        <edge id="-108126735#0" sampledSeconds="0.00" departed="0" arrived="0" entered="0" left="0" laneChangedFrom="0" laneChangedTo="0"/>
        <edge id="-108126787#0" sampledSeconds="0.00" departed="0" arrived="0" entered="0" left="0" laneChangedFrom="0" laneChangedTo="0"/>
        <edge id="-108126787#1" sampledSeconds="0.00" departed="0" arrived="0" entered="0" left="0" laneChangedFrom="0" laneChangedTo="0"/>
        <edge id="-108126787#2" sampledSeconds="0.00" departed="0" arrived="0" entered="0" left="0" laneChangedFrom="0" laneChangedTo="0"/>
        <edge id="-108126787#3" sampledSeconds="0.00" departed="0" arrived="0" entered="0" left="0" laneChangedFrom="0" laneChangedTo="0"/>
        <edge id="-108151968" sampledSeconds="0.00" departed="0" arrived="0" entered="0" left="0" laneChangedFrom="0" laneChangedTo="0"/>
        <edge id="-108151971#0" sampledSeconds="0.00" departed="0" arrived="0" entered="0" left="0" laneChangedFrom="0" laneChangedTo="0"/>
        <edge id="-108151971#1" sampledSeconds="0.00" departed="0" arrived="0" entered="0" left="0" laneChangedFrom="0" laneChangedTo="0"/>
        <edge id="-108151974" sampledSeconds="0.00" departed="0" arrived="0" entered="0" left="0" laneChangedFrom="0" laneChangedTo="0"/>
        <edge id="-108151976#0" sampledSeconds="0.00" departed="0" arrived="0" entered="0" left="0" laneChangedFrom="0" laneChangedTo="0"/>
        <edge id="-108151976#1" sampledSeconds="0.00" departed="0" arrived="0" entered="0" left="0" laneChangedFrom="0" laneChangedTo="0"/>
        <edge id="-108151976#2" sampledSeconds="0.00" departed="0" arrived="0" entered="0" left="0" laneChangedFrom="0" laneChangedTo="0"/>
        <edge id="-108151976#3" sampledSeconds="0.00" departed="0" arrived="0" entered="0" left="0" laneChangedFrom="0" laneChangedTo="0"/>
        <edge id="-108151976#4" sampledSeconds="0.00" departed="0" arrived="0" entered="0" left="0" laneChangedFrom="0" laneChangedTo="0"/>
        <edge id="-109830590#0" sampledSeconds="162.00" overlapTraveltime="100000.00" density="1.01" laneDensity="1.01" occupancy="0.46" waitingTime="0.00" timeLoss="0.00" speed="0.00" speedRelative="0.00" departed="1" arrived="0" entered="0" left="1" laneChangedFrom="0" laneChangedTo="0" vaporized="1"/>
        <edge id="-109830590#1" sampledSeconds="0.00" departed="0" arrived="0" entered="0" left="0" laneChangedFrom="0" laneChangedTo="0"/>
        <edge id="-109830590#2" sampledSeconds="0.00" departed="0" arrived="0" entered="0" left="0" laneChangedFrom="0" laneChangedTo="0"/>
        <edge id="-109830590#3" sampledSeconds="0.00" departed="0" arrived="0" entered="0" left="0" laneChangedFrom="0" laneChangedTo="0"/>
        <edge id="-1099310698" sampledSeconds="179.85" traveltime="11.58" overlapTraveltime="12.11" density="0.40" laneDensity="0.40" occupancy="0.26" waitingTime="0.00" timeLoss="40.72" speed="10.93" speedRelative="0.79" departed="2" arrived="3" entered="13" left="12" laneChangedFrom="0" laneChangedTo="0"/>
        <edge id="-110742921" sampledSeconds="0.00" departed="0" arrived="0" entered="0" left="0" laneChangedFrom="0" laneChangedTo="0"/>
        <edge id="-110742922#0" sampledSeconds="0.00" departed="0" arrived="0" entered="0" left="0" laneChangedFrom="0" laneChangedTo="0"/>
        <edge id="-110742922#1" sampledSeconds="0.00" departed="0" arrived="0" entered="0" left="0" laneChangedFrom="0" laneChangedTo="0"/>
        <edge id="-110742922#2" sampledSeconds="0.00" departed="0" arrived="0" entered="0" left="0" laneChangedFrom="0" laneChangedTo="0"/>
        <edge id="-111793047" sampledSeconds="0.00" departed="0" arrived="0" entered="0" left="0" laneChangedFrom="0" laneChangedTo="0"/>
        <edge id="-114835839#0" sampledSeconds="121.12" traveltime="11.81" overlapTraveltime="12.56" density="0.24" laneDensity="0.24" occupancy="0.21" waitingTime="0.00" timeLoss="18.26" speed="11.89" speedRelative="0.86" departed="0" arrived="10" entered="10" left="0" laneChangedFrom="0" laneChangedTo="0"/>
        <edge id="-114835839#1" sampledSeconds="220.81" traveltime="35.93" overlapTraveltime="36.93" density="0.13" laneDensity="0.13" occupancy="0.08" waitingTime="0.00" timeLoss="24.25" speed="12.67" speedRelative="0.91" departed="1" arrived="1" entered="5" left="5" laneChangedFrom="0" laneChangedTo="0"/>
        <edge id="-114835856" sampledSeconds="263.60" traveltime="42.57" overlapTraveltime="44.48" density="0.16" laneDensity="0.16" occupancy="0.15" waitingTime="11.00" timeLoss="44.69" speed="10.67" speedRelative="0.77" departed="1" arrived="2" entered="5" left="4" laneChangedFrom="0" laneChangedTo="0"/>
        <edge id="-1148461884#0" sampledSeconds="858.37" traveltime="10.44" overlapTraveltime="11.90" density="2.73" laneDensity="2.73" occupancy="1.85" waitingTime="124.00" timeLoss="341.46" speed="7.96" speedRelative="0.57" departed="4" arrived="2" entered="69" left="70" laneChangedFrom="0" laneChangedTo="0"/>
        <edge id="-1148461884#1" sampledSeconds="548.21" traveltime="6.78" overlapTraveltime="7.33" density="1.73" laneDensity="1.73" occupancy="1.08" waitingTime="0.00" timeLoss="33.67" speed="12.93" speedRelative="0.93" departed="2" arrived="4" entered="73" left="71" laneChangedFrom="0" laneChangedTo="0"/>
        <edge id="-1148461884#3" sampledSeconds="742.81" traveltime="7.70" overlapTraveltime="8.52" density="2.45" laneDensity="2.45" occupancy="1.60" waitingTime="3.00" timeLoss="154.16" speed="10.73" speedRelative="0.77" departed="6" arrived="1" entered="82" left="87" laneChangedFrom="0" laneChangedTo="0"/>
        <edge id="-1155202126#1" sampledSeconds="4300.45" traveltime="44.64" overlapTraveltime="46.20" density="8.23" laneDensity="4.12" occupancy="2.71" waitingTime="2713.00" timeLoss="3439.20" speed="3.29" speedRelative="0.20" departed="1" arrived="4" entered="93" left="89" laneChangedFrom="0" laneChangedTo="0"/>
        <edge id="-1173087136#0" sampledSeconds="0.00" departed="0" arrived="0" entered="0" left="0" laneChangedFrom="0" laneChangedTo="0"/>
        <edge id="-1173087136#1" sampledSeconds="0.00" departed="0" arrived="0" entered="0" left="0" laneChangedFrom="0" laneChangedTo="0"/>
        <edge id="-1182981224" sampledSeconds="0.00" departed="0" arrived="0" entered="0" left="0" laneChangedFrom="0" laneChangedTo="0"/>
        <edge id="-118382014" sampledSeconds="0.00" departed="0" arrived="0" entered="0" left="0" laneChangedFrom="0" laneChangedTo="0"/>
        <edge id="-118382015#0" sampledSeconds="0.00" departed="0" arrived="0" entered="0" left="0" laneChangedFrom="0" laneChangedTo="0"/>
        <edge id="-118382015#1" sampledSeconds="0.00" departed="0" arrived="0" entered="0" left="0" laneChangedFrom="0" laneChangedTo="0"/>
        <edge id="-1190628389#0" sampledSeconds="0.00" departed="0" arrived="0" entered="0" left="0" laneChangedFrom="0" laneChangedTo="0"/>
        <edge id="-1190628389#1" sampledSeconds="0.00" departed="0" arrived="0" entered="0" left="0" laneChangedFrom="0" laneChangedTo="0"/>
        <edge id="-1190628393" sampledSeconds="380.56" traveltime="5.19" overlapTraveltime="5.86" density="1.32" laneDensity="1.32" occupancy="0.90" waitingTime="0.00" timeLoss="30.00" speed="14.98" speedRelative="0.90" departed="0" arrived="2" entered="65" left="63" laneChangedFrom="0" laneChangedTo="0"/>
        <edge id="-1196051035" sampledSeconds="0.00" departed="0" arrived="0" entered="0" left="0" laneChangedFrom="0" laneChangedTo="0"/>
        <edge id="-1198901675" sampledSeconds="0.00" departed="0" arrived="0" entered="0" left="0" laneChangedFrom="0" laneChangedTo="0"/>
        <edge id="-1198901676" sampledSeconds="0.00" departed="0" arrived="0" entered="0" left="0" laneChangedFrom="0" laneChangedTo="0"/>
        <edge id="-1198901677" sampledSeconds="0.00" departed="0" arrived="0" entered="0" left="0" laneChangedFrom="0" laneChangedTo="0"/>
        <edge id="-1198901678#1" sampledSeconds="0.00" departed="0" arrived="0" entered="0" left="0" laneChangedFrom="0" laneChangedTo="0"/>
        <edge id="-1198925406" sampledSeconds="0.00" departed="0" arrived="0" entered="0" left="0" laneChangedFrom="0" laneChangedTo="0"/>
        <edge id="-1198925407" sampledSeconds="0.00" departed="0" arrived="0" entered="0" left="0" laneChangedFrom="0" laneChangedTo="0"/>
        <edge id="-1214517537" sampledSeconds="0.00" departed="0" arrived="0" entered="0" left="0" laneChangedFrom="0" laneChangedTo="0"/>
        <edge id="-1214517538" sampledSeconds="0.00" departed="0" arrived="0" entered="0" left="0" laneChangedFrom="0" laneChangedTo="0"/>
        <edge id="-126329647" sampledSeconds="0.00" departed="0" arrived="0" entered="0" left="0" laneChangedFrom="0" laneChangedTo="0"/>
        <edge id="-126329649#0" sampledSeconds="0.00" departed="0" arrived="0" entered="0" left="0" laneChangedFrom="0" laneChangedTo="0"/>
        <edge id="-126329649#1" sampledSeconds="0.00" departed="0" arrived="0" entered="0" left="0" laneChangedFrom="0" laneChangedTo="0"/>
        <edge id="-1266528613#0" sampledSeconds="0.00" departed="0" arrived="0" entered="0" left="0" laneChangedFrom="0" laneChangedTo="0"/>
        <edge id="-1266528613#1" sampledSeconds="0.00" departed="0" arrived="0" entered="0" left="0" laneChangedFrom="0" laneChangedTo="0"/>
        <edge id="-127323466#0" sampledSeconds="0.00" departed="0" arrived="0" entered="0" left="0" laneChangedFrom="0" laneChangedTo="0"/>
        <edge id="-127323466#1" sampledSeconds="0.00" departed="0" arrived="0" entered="0" left="0" laneChangedFrom="0" laneChangedTo="0"/>
        <edge id="-127325741" sampledSeconds="0.00" departed="0" arrived="0" entered="0" left="0" laneChangedFrom="0" laneChangedTo="0"/>
        <edge id="-1293820838#0" sampledSeconds="0.00" departed="0" arrived="0" entered="0" left="0" laneChangedFrom="0" laneChangedTo="0"/>
        <edge id="-1293820838#1" sampledSeconds="0.00" departed="0" arrived="0" entered="0" left="0" laneChangedFrom="0" laneChangedTo="0"/>
        <edge id="-130847495#0" sampledSeconds="0.00" departed="0" arrived="0" entered="0" left="0" laneChangedFrom="0" laneChangedTo="0"/>
        <edge id="-130847496#0" sampledSeconds="0.00" departed="0" arrived="0" entered="0" left="0" laneChangedFrom="0" laneChangedTo="0"/>
        <edge id="-130847497" sampledSeconds="0.00" departed="0" arrived="0" entered="0" left="0" laneChangedFrom="0" laneChangedTo="0"/>
        <edge id="-130847498" sampledSeconds="0.00" departed="0" arrived="0" entered="0" left="0" laneChangedFrom="0" laneChangedTo="0"/>
        <edge id="-130848969" sampledSeconds="0.00" departed="0" arrived="0" entered="0" left="0" laneChangedFrom="0" laneChangedTo="0"/>
        <edge id="-133352655" sampledSeconds="0.00" departed="0" arrived="0" entered="0" left="0" laneChangedFrom="0" laneChangedTo="0"/>
        <edge id="-135082465#0" sampledSeconds="290.65" traveltime="2.61" overlapTraveltime="3.05" density="2.12" laneDensity="1.06" occupancy="0.61" waitingTime="0.00" timeLoss="30.66" speed="14.75" speedRelative="0.88" departed="5" arrived="3" entered="91" left="93" laneChangedFrom="1" laneChangedTo="1"/>
        <edge id="-135082465#1" sampledSeconds="190.61" traveltime="1.57" overlapTraveltime="2.03" density="2.26" laneDensity="1.13" occupancy="0.61" waitingTime="0.00" timeLoss="16.77" speed="15.08" speedRelative="0.90" departed="2" arrived="4" entered="93" left="91" laneChangedFrom="4" laneChangedTo="4"/>
        <edge id="-135082465#2" sampledSeconds="504.97" traveltime="4.93" overlapTraveltime="5.41" density="2.12" laneDensity="1.06" occupancy="0.67" waitingTime="0.00" timeLoss="88.68" speed="13.59" speedRelative="0.82" departed="1" arrived="1" entered="93" left="93" laneChangedFrom="18" laneChangedTo="18"/>
        <edge id="-1370340549" sampledSeconds="0.00" departed="0" arrived="0" entered="0" left="0" laneChangedFrom="0" laneChangedTo="0"/>
        <edge id="-1384455436#0" sampledSeconds="0.00" departed="0" arrived="0" entered="0" left="0" laneChangedFrom="0" laneChangedTo="0"/>
        <edge id="-1384455436#1" sampledSeconds="0.00" departed="0" arrived="0" entered="0" left="0" laneChangedFrom="0" laneChangedTo="0"/>
        <edge id="-1384455436#2" sampledSeconds="0.00" departed="0" arrived="0" entered="0" left="0" laneChangedFrom="0" laneChangedTo="0"/>
        <edge id="-1384455436#3" sampledSeconds="0.00" departed="0" arrived="0" entered="0" left="0" laneChangedFrom="0" laneChangedTo="0"/>
        <edge id="-1384455436#4" sampledSeconds="0.00" departed="0" arrived="0" entered="0" left="0" laneChangedFrom="0" laneChangedTo="0"/>
        <edge id="-138945312" sampledSeconds="0.00" departed="0" arrived="0" entered="0" left="0" laneChangedFrom="0" laneChangedTo="0"/>
        <edge id="-1390923580#0" sampledSeconds="0.00" departed="0" arrived="0" entered="0" left="0" laneChangedFrom="0" laneChangedTo="0"/>
        <edge id="-1390923580#1" sampledSeconds="0.00" departed="0" arrived="0" entered="0" left="0" laneChangedFrom="0" laneChangedTo="0"/>
        <edge id="-1390923580#2" sampledSeconds="0.00" departed="0" arrived="0" entered="0" left="0" laneChangedFrom="0" laneChangedTo="0"/>
        <edge id="-1390923581" sampledSeconds="0.00" departed="0" arrived="0" entered="0" left="0" laneChangedFrom="0" laneChangedTo="0"/>
        <edge id="-1395653504" sampledSeconds="0.00" departed="0" arrived="0" entered="0" left="0" laneChangedFrom="0" laneChangedTo="0"/>
        <edge id="-143229322" sampledSeconds="0.00" departed="0" arrived="0" entered="0" left="0" laneChangedFrom="0" laneChangedTo="0"/>
        <edge id="-143229324" sampledSeconds="0.00" departed="0" arrived="0" entered="0" left="0" laneChangedFrom="0" laneChangedTo="0"/>
        <edge id="-146483523" sampledSeconds="0.00" departed="0" arrived="0" entered="0" left="0" laneChangedFrom="0" laneChangedTo="0"/>
        <edge id="-146483524#0" sampledSeconds="0.00" departed="0" arrived="0" entered="0" left="0" laneChangedFrom="0" laneChangedTo="0"/>
        <edge id="-146483524#1" sampledSeconds="0.00" departed="0" arrived="0" entered="0" left="0" laneChangedFrom="0" laneChangedTo="0"/>
        <edge id="-146483524#2" sampledSeconds="0.00" departed="0" arrived="0" entered="0" left="0" laneChangedFrom="0" laneChangedTo="0"/>
        <edge id="-146483524#3" sampledSeconds="0.00" departed="0" arrived="0" entered="0" left="0" laneChangedFrom="0" laneChangedTo="0"/>
        <edge id="-146483524#4" sampledSeconds="0.00" departed="0" arrived="0" entered="0" left="0" laneChangedFrom="0" laneChangedTo="0"/>
        <edge id="-148113999#0" sampledSeconds="740.81" traveltime="9.00" overlapTraveltime="9.53" density="1.68" laneDensity="1.68" occupancy="1.16" waitingTime="9.00" timeLoss="126.34" speed="13.65" speedRelative="0.82" departed="1" arrived="1" entered="77" left="77" laneChangedFrom="0" laneChangedTo="0"/>
        <edge id="-148113999#1" sampledSeconds="157.26" traveltime="1.13" overlapTraveltime="2.10" density="5.93" laneDensity="5.93" occupancy="2.11" waitingTime="0.00" timeLoss="88.30" speed="7.20" speedRelative="0.43" departed="0" arrived="1" entered="78" left="77" laneChangedFrom="0" laneChangedTo="0"/>
        <edge id="-148113999#2" sampledSeconds="27.12" traveltime="6.39" overlapTraveltime="6.99" density="0.16" laneDensity="0.16" occupancy="0.09" waitingTime="0.00" timeLoss="13.51" speed="7.95" speedRelative="0.48" departed="1" arrived="1" entered="3" left="3" laneChangedFrom="0" laneChangedTo="0"/>
        <edge id="-151679580#0" sampledSeconds="0.00" departed="0" arrived="0" entered="0" left="0" laneChangedFrom="0" laneChangedTo="0"/>
        <edge id="-151679580#1" sampledSeconds="0.00" departed="0" arrived="0" entered="0" left="0" laneChangedFrom="0" laneChangedTo="0"/>
        <edge id="-151679581#0" sampledSeconds="0.00" departed="0" arrived="0" entered="0" left="0" laneChangedFrom="0" laneChangedTo="0"/>
        <edge id="-151679581#1" sampledSeconds="0.00" departed="0" arrived="0" entered="0" left="0" laneChangedFrom="0" laneChangedTo="0"/>
        <edge id="-151679581#2" sampledSeconds="0.00" departed="0" arrived="0" entered="0" left="0" laneChangedFrom="0" laneChangedTo="0"/>
        <edge id="-151679581#3" sampledSeconds="0.00" departed="0" arrived="0" entered="0" left="0" laneChangedFrom="0" laneChangedTo="0"/>
        <edge id="-152797023" sampledSeconds="0.00" departed="0" arrived="0" entered="0" left="0" laneChangedFrom="0" laneChangedTo="0"/>
        <edge id="-152797024#0" sampledSeconds="0.00" departed="0" arrived="0" entered="0" left="0" laneChangedFrom="0" laneChangedTo="0"/>
        <edge id="-152797024#1" sampledSeconds="0.00" departed="0" arrived="0" entered="0" left="0" laneChangedFrom="0" laneChangedTo="0"/>
        <edge id="-152797025#0" sampledSeconds="0.00" departed="0" arrived="0" entered="0" left="0" laneChangedFrom="0" laneChangedTo="0"/>
        <edge id="-156591687" sampledSeconds="0.00" departed="0" arrived="0" entered="0" left="0" laneChangedFrom="0" laneChangedTo="0"/>
        <edge id="-158166377#0" sampledSeconds="0.00" departed="0" arrived="0" entered="0" left="0" laneChangedFrom="0" laneChangedTo="0"/>
        <edge id="-158166377#1" sampledSeconds="0.00" departed="0" arrived="0" entered="0" left="0" laneChangedFrom="0" laneChangedTo="0"/>
        <edge id="-158166379#0" sampledSeconds="0.00" departed="0" arrived="0" entered="0" left="0" laneChangedFrom="0" laneChangedTo="0"/>
        <edge id="-158166379#1" sampledSeconds="0.00" departed="0" arrived="0" entered="0" left="0" laneChangedFrom="0" laneChangedTo="0"/>
        <edge id="-158167051" sampledSeconds="0.00" departed="0" arrived="0" entered="0" left="0" laneChangedFrom="0" laneChangedTo="0"/>
        <edge id="-158649582" sampledSeconds="0.00" departed="0" arrived="0" entered="0" left="0" laneChangedFrom="0" laneChangedTo="0"/>
        <edge id="-158649583#0" sampledSeconds="0.00" departed="0" arrived="0" entered="0" left="0" laneChangedFrom="0" laneChangedTo="0"/>
        <edge id="-158649583#1" sampledSeconds="0.00" departed="0" arrived="0" entered="0" left="0" laneChangedFrom="0" laneChangedTo="0"/>
        <edge id="-160936867#0" sampledSeconds="0.00" departed="0" arrived="0" entered="0" left="0" laneChangedFrom="0" laneChangedTo="0"/>
        <edge id="-160936867#1" sampledSeconds="0.00" departed="0" arrived="0" entered="0" left="0" laneChangedFrom="0" laneChangedTo="0"/>
        <edge id="-161446376" sampledSeconds="0.00" departed="0" arrived="0" entered="0" left="0" laneChangedFrom="0" laneChangedTo="0"/>
        <edge id="-164568381#0" sampledSeconds="0.00" departed="0" arrived="0" entered="0" left="0" laneChangedFrom="0" laneChangedTo="0"/>
        <edge id="-164568381#1" sampledSeconds="0.00" departed="0" arrived="0" entered="0" left="0" laneChangedFrom="0" laneChangedTo="0"/>
        <edge id="-164568382#0" sampledSeconds="0.00" departed="0" arrived="0" entered="0" left="0" laneChangedFrom="0" laneChangedTo="0"/>
        <edge id="-164568382#1" sampledSeconds="0.00" departed="0" arrived="0" entered="0" left="0" laneChangedFrom="0" laneChangedTo="0"/>
        <edge id="-164568382#2" sampledSeconds="0.00" departed="0" arrived="0" entered="0" left="0" laneChangedFrom="0" laneChangedTo="0"/>
        <edge id="-164568382#3" sampledSeconds="0.00" departed="0" arrived="0" entered="0" left="0" laneChangedFrom="0" laneChangedTo="0"/>
        <edge id="-164568382#4" sampledSeconds="0.00" departed="0" arrived="0" entered="0" left="0" laneChangedFrom="0" laneChangedTo="0"/>
        <edge id="-164568382#5" sampledSeconds="0.00" departed="0" arrived="0" entered="0" left="0" laneChangedFrom="0" laneChangedTo="0"/>
        <edge id="-164568382#6" sampledSeconds="0.00" departed="0" arrived="0" entered="0" left="0" laneChangedFrom="0" laneChangedTo="0"/>