<?xml version="1.0" encoding="UTF-8"?>

<!-- generated on 2025-10-03 20:46:26 by Eclipse SUMO sumo Version 1.24.0
<sumoConfiguration xmlns:xsi="http://www.w3.org/2001/XMLSchema-instance" xsi:noNamespaceSchemaLocation="http://sumo.dlr.de/xsd/sumoConfiguration.xsd">

    <input>
        <net-file value="C:\Users\kurga\workspace\sity_sim\sumo_config\2025-09-20-14-52-18\osm.net.xml.gz"/>
        <route-files value="C:\Users\kurga\workspace\sity_sim\sumo_config\2025-09-20-14-52-18\osm_pt.rou.xml,C:\Users\kurga\workspace\sity_sim\sumo_config\2025-09-20-14-52-18\osm.bus.trips.xml,C:\Users\kurga\workspace\sity_sim\sumo_config\2025-09-20-14-52-18\osm.passenger.trips.xml"/>
        <additional-files value="C:\Users\kurga\workspace\sity_sim\sumo_config\2025-09-20-14-52-18\osm.poly.xml.gz,C:\Users\kurga\workspace\sity_sim\sumo_config\2025-09-20-14-52-18\osm_stops.add.xml,C:\Users\kurga\workspace\sity_sim\sumo_config\2025-09-20-14-52-18\output.add.xml"/>
    </input>

    <output>
        <tripinfo-output value="C:\Users\kurga\workspace\sity_sim\sumo_config\2025-09-20-14-52-18\tripinfos.xml"/>
        <stop-output value="C:\Users\kurga\workspace\sity_sim\sumo_config\2025-09-20-14-52-18\stopinfos.xml"/>
        <statistic-output value="C:\Users\kurga\workspace\sity_sim\sumo_config\2025-09-20-14-52-18\stats.xml"/>
    </output>

    <processing>
        <ignore-route-errors value="true"/>
        <tls.actuated.jam-threshold value="30"/>
    </processing>

    <routing>
        <device.rerouting.adaptation-steps value="18"/>
        <device.rerouting.adaptation-interval value="10"/>
    </routing>

    <report>
        <verbose value="false"/>
        <no-warnings value="true"/>
        <duration-log.statistics value="true"/>
        <no-step-log value="true"/>
    </report>

    <traci_server>
        <remote-port value="52429"/>
    </traci_server>

    <random_number>
        <seed value="42"/>
    </random_number>

    <gui_only>
        <gui-settings-file value="C:\Users\kurga\workspace\sity_sim\sumo_config\2025-09-20-14-52-18\osm.view.xml"/>
    </gui_only>

</sumoConfiguration>
-->

<meandata xmlns:xsi="http://www.w3.org/2001/XMLSchema-instance" xsi:noNamespaceSchemaLocation="http://sumo.dlr.de/xsd/meandata_file.xsd">
    <interval begin="0.00" end="3600.00" id="wizard_example">
        <edge id="-103855914#1" sampledSeconds="156.44" traveltime="12.56" overlapTraveltime="13.68" density="0.26" laneDensity="0.26" occupancy="0.20" waitingTime="0.00" timeLoss="12.92" speed="12.58" speedRelative="0.91" departed="12" arrived="0" entered="0" left="12" laneChangedFrom="0" laneChangedTo="0"/>
        <edge id="-103907907" sampledSeconds="16.01" traveltime="0.57" overlapTraveltime="2.36" density="1.96" laneDensity="1.96" occupancy="0.33" waitingTime="0.00" timeLoss="4.41" speed="3.78" speedRelative="0.27" departed="0" arrived="3" entered="8" left="5" laneChangedFrom="0" laneChangedTo="0"/>
        <edge id="-103999075#0" sampledSeconds="0.00" departed="0" arrived="0" entered="0" left="0" laneChangedFrom="0" laneChangedTo="0"/>
        <edge id="-103999075#1" sampledSeconds="0.00" departed="0" arrived="0" entered="0" left="0" laneChangedFrom="0" laneChangedTo="0"/>
        <edge id="-103999078#0" sampledSeconds="118.00" traveltime="15.60" overlapTraveltime="17.03" density="0.20" laneDensity="0.20" occupancy="0.13" waitingTime="11.00" timeLoss="33.88" speed="10.13" speedRelative="0.73" departed="2" arrived="1" entered="5" left="6" laneChangedFrom="0" laneChangedTo="0"/>
        <edge id="-103999078#1" sampledSeconds="39.11" traveltime="5.92" overlapTraveltime="6.57" density="0.16" laneDensity="0.16" occupancy="0.12" waitingTime="0.00" timeLoss="8.24" speed="11.59" speedRelative="0.83" departed="0" arrived="1" entered="6" left="5" laneChangedFrom="0" laneChangedTo="0"/>
        <edge id="-103999078#2" sampledSeconds="48.82" traveltime="24.08" overlapTraveltime="25.61" density="0.06" laneDensity="0.06" occupancy="0.07" waitingTime="0.00" timeLoss="14.70" speed="9.71" speedRelative="0.70" departed="1" arrived="1" entered="1" left="1" laneChangedFrom="0" laneChangedTo="0"/>
        <edge id="-103999087#0" sampledSeconds="178.43" traveltime="21.43" overlapTraveltime="22.46" density="0.20" laneDensity="0.20" occupancy="0.15" waitingTime="0.00" timeLoss="26.91" speed="11.44" speedRelative="0.82" departed="1" arrived="1" entered="7" left="7" laneChangedFrom="0" laneChangedTo="0"/>
        <edge id="-103999087#1" sampledSeconds="80.57" traveltime="7.90" overlapTraveltime="9.36" density="0.30" laneDensity="0.30" occupancy="0.23" waitingTime="0.00" timeLoss="25.36" speed="8.88" speedRelative="0.64" departed="2" arrived="2" entered="7" left="7" laneChangedFrom="0" laneChangedTo="0"/>
        <edge id="-103999087#2" sampledSeconds="31.72" traveltime="2.37" overlapTraveltime="3.11" density="0.38" laneDensity="0.38" occupancy="0.23" waitingTime="0.00" timeLoss="8.63" speed="9.87" speedRelative="0.71" departed="2" arrived="4" entered="9" left="7" laneChangedFrom="0" laneChangedTo="0"/>
        <edge id="-103999087#3" sampledSeconds="70.38" traveltime="6.59" overlapTraveltime="7.09" density="0.25" laneDensity="0.25" occupancy="0.15" waitingTime="0.00" timeLoss="7.38" speed="12.08" speedRelative="0.87" departed="1" arrived="1" entered="9" left="9" laneChangedFrom="0" laneChangedTo="0"/>
        <edge id="-103999087#4" sampledSeconds="40.75" traveltime="3.90" overlapTraveltime="4.56" density="0.41" laneDensity="0.41" occupancy="0.21" waitingTime="0.00" timeLoss="17.79" speed="7.62" speedRelative="0.55" departed="0" arrived="0" entered="9" left="9" laneChangedFrom="0" laneChangedTo="0"/>
        <edge id="-103999104#0" sampledSeconds="356.45" traveltime="21.47" overlapTraveltime="22.36" density="0.40" laneDensity="0.40" occupancy="0.24" waitingTime="4.00" timeLoss="48.45" speed="11.45" speedRelative="0.82" departed="3" arrived="2" entered="13" left="14" laneChangedFrom="0" laneChangedTo="0"/>
        <edge id="-103999104#1" sampledSeconds="75.73" traveltime="6.42" overlapTraveltime="7.08" density="0.29" laneDensity="0.29" occupancy="0.18" waitingTime="0.00" timeLoss="13.75" speed="11.10" speedRelative="0.80" departed="2" arrived="3" entered="9" left="8" laneChangedFrom="0" laneChangedTo="0"/>
        <edge id="-103999104#2" sampledSeconds="22.47" traveltime="1.89" overlapTraveltime="2.37" density="0.33" laneDensity="0.33" occupancy="0.15" waitingTime="0.00" timeLoss="5.72" speed="10.42" speedRelative="0.75" departed="2" arrived="1" entered="8" left="9" laneChangedFrom="0" laneChangedTo="0"/>
        <edge id="-103999104#3" sampledSeconds="62.41" traveltime="6.49" overlapTraveltime="6.94" density="0.21" laneDensity="0.21" occupancy="0.11" waitingTime="0.00" timeLoss="4.04" speed="12.77" speedRelative="0.92" departed="0" arrived="1" entered="9" left="8" laneChangedFrom="0" laneChangedTo="0"/>
        <edge id="-103999104#4" sampledSeconds="44.33" traveltime="4.06" overlapTraveltime="4.59" density="0.41" laneDensity="0.41" occupancy="0.19" waitingTime="0.00" timeLoss="18.74" speed="7.83" speedRelative="0.56" departed="2" arrived="1" entered="8" left="9" laneChangedFrom="0" laneChangedTo="0"/>
        <edge id="-103999107#0" sampledSeconds="169.88" traveltime="23.13" overlapTraveltime="24.58" density="0.19" laneDensity="0.19" occupancy="0.15" waitingTime="12.00" timeLoss="42.98" speed="10.41" speedRelative="0.75" departed="3" arrived="3" entered="4" left="4" laneChangedFrom="0" laneChangedTo="0"/>
        <edge id="-103999107#1" sampledSeconds="46.13" traveltime="23.14" overlapTraveltime="23.84" density="0.05" laneDensity="0.05" occupancy="0.05" waitingTime="0.00" timeLoss="9.96" speed="10.17" speedRelative="0.73" departed="1" arrived="1" entered="1" left="1" laneChangedFrom="0" laneChangedTo="0"/>
        <edge id="-104071721#0" sampledSeconds="0.00" departed="0" arrived="0" entered="0" left="0" laneChangedFrom="0" laneChangedTo="0"/>
        <edge id="-104071721#1" sampledSeconds="0.00" departed="0" arrived="0" entered="0" left="0" laneChangedFrom="0" laneChangedTo="0"/>
        <edge id="-104071721#2" sampledSeconds="0.00" departed="0" arrived="0" entered="0" left="0" laneChangedFrom="0" laneChangedTo="0"/>
        <edge id="-104071734#0" sampledSeconds="0.00" departed="0" arrived="0" entered="0" left="0" laneChangedFrom="0" laneChangedTo="0"/>
        <edge id="-104500199" sampledSeconds="0.00" departed="0" arrived="0" entered="0" left="0" laneChangedFrom="0" laneChangedTo="0"/>
        <edge id="-1052526173#0" sampledSeconds="0.00" departed="0" arrived="0" entered="0" left="0" laneChangedFrom="0" laneChangedTo="0"/>
        <edge id="-1052526173#1" sampledSeconds="0.00" departed="0" arrived="0" entered="0" left="0" laneChangedFrom="0" laneChangedTo="0"/>
        <edge id="-1052526173#2" sampledSeconds="0.00" departed="0" arrived="0" entered="0" left="0" laneChangedFrom="0" laneChangedTo="0"/>
        <edge id="-1055495280" sampledSeconds="0.00" departed="0" arrived="0" entered="0" left="0" laneChangedFrom="0" laneChangedTo="0"/>
        <edge id="-105551742#0" sampledSeconds="0.00" departed="0" arrived="0" entered="0" left="0" laneChangedFrom="0" laneChangedTo="0"/>
        <edge id="-105551742#1" sampledSeconds="0.00" departed="0" arrived="0" entered="0" left="0" laneChangedFrom="0" laneChangedTo="0"/>
        <edge id="-105551742#2" sampledSeconds="0.00" departed="0" arrived="0" entered="0" left="0" laneChangedFrom="0" laneChangedTo="0"/>
        <edge id="-105551742#3" sampledSeconds="0.00" departed="0" arrived="0" entered="0" left="0" laneChangedFrom="0" laneChangedTo="0"/>
        <edge id="-1064346092" sampledSeconds="0.00" departed="0" arrived="0" entered="0" left="0" laneChangedFrom="0" laneChangedTo="0"/>
        <edge id="-106993840" sampledSeconds="0.00" departed="0" arrived="0" entered="0" left="0" laneChangedFrom="0" laneChangedTo="0"/>
        <edge id="-108126733" sampledSeconds="0.00" departed="0" arrived="0" entered="0" left="0" laneChangedFrom="0" laneChangedTo="0"/>
        <edge id="-108126734" sampledSeconds="0.00" departed="0" arrived="0" entered="0" left="0" laneChangedFrom="0" laneChangedTo="0"/>
        <edge id="-108126735#0" sampledSeconds="0.00" departed="0" arrived="0" entered="0" left="0" laneChangedFrom="0" laneChangedTo="0"/>
        <edge id="-108126787#0" sampledSeconds="0.00" departed="0" arrived="0" entered="0" left="0" laneChangedFrom="0" laneChangedTo="0"/>
        <edge id="-108126787#1" sampledSeconds="0.00" departed="0" arrived="0" entered="0" left="0" laneChangedFrom="0" laneChangedTo="0"/>
        <edge id="-108126787#2" sampledSeconds="0.00" departed="0" arrived="0" entered="0" left="0" laneChangedFrom="0" laneChangedTo="0"/>
        <edge id="-108126787#3" sampledSeconds="0.00" departed="0" arrived="0" entered="0" left="0" laneChangedFrom="0" laneChangedTo="0"/>
        <edge id="-108151968" sampledSeconds="0.00" departed="0" arrived="0" entered="0" left="0" laneChangedFrom="0" laneChangedTo="0"/>
        <edge id="-108151971#0" sampledSeconds="0.00" departed="0" arrived="0" entered="0" left="0" laneChangedFrom="0" laneChangedTo="0"/>
        <edge id="-108151971#1" sampledSeconds="0.00" departed="0" arrived="0" entered="0" left="0" laneChangedFrom="0" laneChangedTo="0"/>
        <edge id="-108151974" sampledSeconds="0.00" departed="0" arrived="0" entered="0" left="0" laneChangedFrom="0" laneChangedTo="0"/>
        <edge id="-108151976#0" sampledSeconds="0.00" departed="0" arrived="0" entered="0" left="0" laneChangedFrom="0" laneChangedTo="0"/>
        <edge id="-108151976#1" sampledSeconds="0.00" departed="0" arrived="0" entered="0" left="0" laneChangedFrom="0" laneChangedTo="0"/>
        <edge id="-108151976#2" sampledSeconds="0.00" departed="0" arrived="0" entered="0" left="0" laneChangedFrom="0" laneChangedTo="0"/>
        <edge id="-108151976#3" sampledSeconds="0.00" departed="0" arrived="0" entered="0" left="0" laneChangedFrom="0" laneChangedTo="0"/>
        <edge id="-108151976#4" sampledSeconds="0.00" departed="0" arrived="0" entered="0" left="0" laneChangedFrom="0" laneChangedTo="0"/>
        <edge id="-109830590#0" sampledSeconds="0.00" departed="0" arrived="0" entered="0" left="0" laneChangedFrom="0" laneChangedTo="0"/>
        <edge id="-109830590#1" sampledSeconds="0.00" departed="0" arrived="0" entered="0" left="0" laneChangedFrom="0" laneChangedTo="0"/>
        <edge id="-109830590#2" sampledSeconds="0.00" departed="0" arrived="0" entered="0" left="0" laneChangedFrom="0" laneChangedTo="0"/>
        <edge id="-109830590#3" sampledSeconds="0.00" departed="0" arrived="0" entered="0" left="0" laneChangedFrom="0" laneChangedTo="0"/>
        <edge id="-1099310698" sampledSeconds="246.66" traveltime="11.95" overlapTraveltime="12.49" density="0.55" laneDensity="0.55" occupancy="0.35" waitingTime="0.00" timeLoss="60.12" speed="10.59" speedRelative="0.76" departed="2" arrived="4" entered="18" left="16" laneChangedFrom="0" laneChangedTo="0"/>
        <edge id="-110742921" sampledSeconds="0.00" departed="0" arrived="0" entered="0" left="0" laneChangedFrom="0" laneChangedTo="0"/>
        <edge id="-110742922#0" sampledSeconds="0.00" departed="0" arrived="0" entered="0" left="0" laneChangedFrom="0" laneChangedTo="0"/>
        <edge id="-110742922#1" sampledSeconds="0.00" departed="0" arrived="0" entered="0" left="0" laneChangedFrom="0" laneChangedTo="0"/>
        <edge id="-110742922#2" sampledSeconds="0.00" departed="0" arrived="0" entered="0" left="0" laneChangedFrom="0" laneChangedTo="0"/>
        <edge id="-111793047" sampledSeconds="0.00" departed="0" arrived="0" entered="0" left="0" laneChangedFrom="0" laneChangedTo="0"/>
        <edge id="-114835839#0" sampledSeconds="119.73" traveltime="11.69" overlapTraveltime="12.43" density="0.24" laneDensity="0.24" occupancy="0.21" waitingTime="0.00" timeLoss="16.98" speed="12.02" speedRelative="0.87" departed="0" arrived="10" entered="10" left="0" laneChangedFrom="0" laneChangedTo="0"/>
        <edge id="-114835839#1" sampledSeconds="295.07" traveltime="35.94" overlapTraveltime="36.94" density="0.18" laneDensity="0.18" occupancy="0.12" waitingTime="0.00" timeLoss="29.71" speed="12.69" speedRelative="0.91" departed="1" arrived="1" entered="7" left="7" laneChangedFrom="0" laneChangedTo="0"/>
        <edge id="-114835856" sampledSeconds="291.09" traveltime="40.49" overlapTraveltime="41.90" density="0.17" laneDensity="0.17" occupancy="0.15" waitingTime="1.00" timeLoss="40.39" speed="11.31" speedRelative="0.81" departed="1" arrived="2" entered="6" left="5" laneChangedFrom="0" laneChangedTo="0"/>
        <edge id="-1148461884#0" sampledSeconds="826.98" traveltime="10.24" overlapTraveltime="11.60" density="2.63" laneDensity="2.63" occupancy="1.65" waitingTime="101.00" timeLoss="320.60" speed="8.13" speedRelative="0.59" departed="4" arrived="2" entered="68" left="69" laneChangedFrom="0" laneChangedTo="0"/>
        <edge id="-1148461884#1" sampledSeconds="543.20" traveltime="6.82" overlapTraveltime="7.37" density="1.71" laneDensity="1.71" occupancy="1.03" waitingTime="0.00" timeLoss="36.13" speed="12.83" speedRelative="0.92" departed="2" arrived="4" entered="72" left="70" laneChangedFrom="0" laneChangedTo="0"/>
        <edge id="-1148461884#3" sampledSeconds="742.70" traveltime="7.73" overlapTraveltime="8.53" density="2.45" laneDensity="2.45" occupancy="1.55" waitingTime="4.00" timeLoss="155.11" speed="10.70" speedRelative="0.77" departed="6" arrived="1" entered="82" left="87" laneChangedFrom="0" laneChangedTo="0"/>
        <edge id="-1155202126#1" sampledSeconds="4149.29" traveltime="43.64" overlapTraveltime="45.28" density="7.94" laneDensity="3.97" occupancy="2.88" waitingTime="2656.00" timeLoss="3300.02" speed="3.37" speedRelative="0.20" departed="1" arrived="4" entered="91" left="88" laneChangedFrom="0" laneChangedTo="0"/>
        <edge id="-1173087136#0" sampledSeconds="0.00" departed="0" arrived="0" entered="0" left="0" laneChangedFrom="0" laneChangedTo="0"/>
        <edge id="-1173087136#1" sampledSeconds="0.00" departed="0" arrived="0" entered="0" left="0" laneChangedFrom="0" laneChangedTo="0"/>
        <edge id="-1182981224" sampledSeconds="0.00" departed="0" arrived="0" entered="0" left="0" laneChangedFrom="0" laneChangedTo="0"/>
        <edge id="-118382014" sampledSeconds="0.00" departed="0" arrived="0" entered="0" left="0" laneChangedFrom="0" laneChangedTo="0"/>
        <edge id="-118382015#0" sampledSeconds="0.00" departed="0" arrived="0" entered="0" left="0" laneChangedFrom="0" laneChangedTo="0"/>
        <edge id="-118382015#1" sampledSeconds="0.00" departed="0" arrived="0" entered="0" left="0" laneChangedFrom="0" laneChangedTo="0"/>
        <edge id="-1190628389#0" sampledSeconds="0.00" departed="0" arrived="0" entered="0" left="0" laneChangedFrom="0" laneChangedTo="0"/>
        <edge id="-1190628389#1" sampledSeconds="0.00" departed="0" arrived="0" entered="0" left="0" laneChangedFrom="0" laneChangedTo="0"/>
        <edge id="-1190628393" sampledSeconds="450.04" traveltime="5.16" overlapTraveltime="5.85" density="1.56" laneDensity="1.56" occupancy="1.09" waitingTime="2.00" timeLoss="37.09" speed="15.04" speedRelative="0.90" departed="0" arrived="2" entered="77" left="75" laneChangedFrom="0" laneChangedTo="0"/>
        <edge id="-1196051035" sampledSeconds="0.00" departed="0" arrived="0" entered="0" left="0" laneChangedFrom="0" laneChangedTo="0"/>
        <edge id="-1198901675" sampledSeconds="0.00" departed="0" arrived="0" entered="0" left="0" laneChangedFrom="0" laneChangedTo="0"/>
        <edge id="-1198901676" sampledSeconds="0.00" departed="0" arrived="0" entered="0" left="0" laneChangedFrom="0" laneChangedTo="0"/>
        <edge id="-1198901677" sampledSeconds="0.00" departed="0" arrived="0" entered="0" left="0" laneChangedFrom="0" laneChangedTo="0"/>
        <edge id="-1198901678#1" sampledSeconds="0.00" departed="0" arrived="0" entered="0" left="0" laneChangedFrom="0" laneChangedTo="0"/>
        <edge id="-1198925406" sampledSeconds="0.00" departed="0" arrived="0" entered="0" left="0" laneChangedFrom="0" laneChangedTo="0"/>
        <edge id="-1198925407" sampledSeconds="0.00" departed="0" arrived="0" entered="0" left="0" laneChangedFrom="0" laneChangedTo="0"/>
        <edge id="-1214517537" sampledSeconds="0.00" departed="0" arrived="0" entered="0" left="0" laneChangedFrom="0" laneChangedTo="0"/>
        <edge id="-1214517538" sampledSeconds="0.00" departed="0" arrived="0" entered="0" left="0" laneChangedFrom="0" laneChangedTo="0"/>
        <edge id="-126329647" sampledSeconds="0.00" departed="0" arrived="0" entered="0" left="0" laneChangedFrom="0" laneChangedTo="0"/>
        <edge id="-126329649#0" sampledSeconds="0.00" departed="0" arrived="0" entered="0" left="0" laneChangedFrom="0" laneChangedTo="0"/>
        <edge id="-126329649#1" sampledSeconds="0.00" departed="0" arrived="0" entered="0" left="0" laneChangedFrom="0" laneChangedTo="0"/>
        <edge id="-1266528613#0" sampledSeconds="0.00" departed="0" arrived="0" entered="0" left="0" laneChangedFrom="0" laneChangedTo="0"/>
        <edge id="-1266528613#1" sampledSeconds="0.00" departed="0" arrived="0" entered="0" left="0" laneChangedFrom="0" laneChangedTo="0"/>
        <edge id="-127323466#0" sampledSeconds="0.00" departed="0" arrived="0" entered="0" left="0" laneChangedFrom="0" laneChangedTo="0"/>
        <edge id="-127323466#1" sampledSeconds="0.00" departed="0" arrived="0" entered="0" left="0" laneChangedFrom="0" laneChangedTo="0"/>
        <edge id="-127325741" sampledSeconds="0.00" departed="0" arrived="0" entered="0" left="0" laneChangedFrom="0" laneChangedTo="0"/>
        <edge id="-1293820838#0" sampledSeconds="0.00" departed="0" arrived="0" entered="0" left="0" laneChangedFrom="0" laneChangedTo="0"/>
        <edge id="-1293820838#1" sampledSeconds="0.00" departed="0" arrived="0" entered="0" left="0" laneChangedFrom="0" laneChangedTo="0"/>
        <edge id="-130847495#0" sampledSeconds="0.00" departed="0" arrived="0" entered="0" left="0" laneChangedFrom="0" laneChangedTo="0"/>
        <edge id="-130847496#0" sampledSeconds="0.00" departed="0" arrived="0" entered="0" left="0" laneChangedFrom="0" laneChangedTo="0"/>
        <edge id="-130847497" sampledSeconds="0.00" departed="0" arrived="0" entered="0" left="0" laneChangedFrom="0" laneChangedTo="0"/>
        <edge id="-130847498" sampledSeconds="0.00" departed="0" arrived="0" entered="0" left="0" laneChangedFrom="0" laneChangedTo="0"/>
        <edge id="-130848969" sampledSeconds="0.00" departed="0" arrived="0" entered="0" left="0" laneChangedFrom="0" laneChangedTo="0"/>
        <edge id="-133352655" sampledSeconds="0.00" departed="0" arrived="0" entered="0" left="0" laneChangedFrom="0" laneChangedTo="0"/>
        <edge id="-135082465#0" sampledSeconds="282.68" traveltime="2.58" overlapTraveltime="3.03" density="2.06" laneDensity="1.03" occupancy="0.60" waitingTime="0.00" timeLoss="28.16" speed="14.87" speedRelative="0.89" departed="5" arrived="3" entered="90" left="91" laneChangedFrom="1" laneChangedTo="1"/>
        <edge id="-135082465#1" sampledSeconds="185.71" traveltime="1.56" overlapTraveltime="2.03" density="2.20" laneDensity="1.10" occupancy="0.59" waitingTime="0.00" timeLoss="15.69" speed="15.14" speedRelative="0.91" departed="2" arrived="3" entered="91" left="90" laneChangedFrom="2" laneChangedTo="2"/>
        <edge id="-135082465#2" sampledSeconds="491.10" traveltime="4.89" overlapTraveltime="5.37" density="2.06" laneDensity="1.03" occupancy="0.65" waitingTime="0.00" timeLoss="82.86" speed="13.71" speedRelative="0.82" departed="1" arrived="1" entered="91" left="91" laneChangedFrom="16" laneChangedTo="16"/>
        <edge id="-1370340549" sampledSeconds="0.00" departed="0" arrived="0" entered="0" left="0" laneChangedFrom="0" laneChangedTo="0"/>
        <edge id="-1384455436#0" sampledSeconds="0.00" departed="0" arrived="0" entered="0" left="0" laneChangedFrom="0" laneChangedTo="0"/>
        <edge id="-1384455436#1" sampledSeconds="0.00" departed="0" arrived="0" entered="0" left="0" laneChangedFrom="0" laneChangedTo="0"/>
        <edge id="-1384455436#2" sampledSeconds="0.00" departed="0" arrived="0" entered="0" left="0" laneChangedFrom="0" laneChangedTo="0"/>
        <edge id="-1384455436#3" sampledSeconds="0.00" departed="0" arrived="0" entered="0" left="0" laneChangedFrom="0" laneChangedTo="0"/>
        <edge id="-1384455436#4" sampledSeconds="0.00" departed="0" arrived="0" entered="0" left="0" laneChangedFrom="0" laneChangedTo="0"/>
        <edge id="-138945312" sampledSeconds="0.00" departed="0" arrived="0" entered="0" left="0" laneChangedFrom="0" laneChangedTo="0"/>
        <edge id="-1390923580#0" sampledSeconds="0.00" departed="0" arrived="0" entered="0" left="0" laneChangedFrom="0" laneChangedTo="0"/>
        <edge id="-1390923580#1" sampledSeconds="0.00" departed="0" arrived="0" entered="0" left="0" laneChangedFrom="0" laneChangedTo="0"/>
        <edge id="-1390923580#2" sampledSeconds="0.00" departed="0" arrived="0" entered="0" left="0" laneChangedFrom="0" laneChangedTo="0"/>
        <edge id="-1390923581" sampledSeconds="0.00" departed="0" arrived="0" entered="0" left="0" laneChangedFrom="0" laneChangedTo="0"/>
        <edge id="-1395653504" sampledSeconds="0.00" departed="0" arrived="0" entered="0" left="0" laneChangedFrom="0" laneChangedTo="0"/>
        <edge id="-143229322" sampledSeconds="0.00" departed="0" arrived="0" entered="0" left="0" laneChangedFrom="0" laneChangedTo="0"/>
        <edge id="-143229324" sampledSeconds="0.00" departed="0" arrived="0" entered="0" left="0" laneChangedFrom="0" laneChangedTo="0"/>
        <edge id="-146483523" sampledSeconds="0.00" departed="0" arrived="0" entered="0" left="0" laneChangedFrom="0" laneChangedTo="0"/>
        <edge id="-146483524#0" sampledSeconds="0.00" departed="0" arrived="0" entered="0" left="0" laneChangedFrom="0" laneChangedTo="0"/>
        <edge id="-146483524#1" sampledSeconds="0.00" departed="0" arrived="0" entered="0" left="0" laneChangedFrom="0" laneChangedTo="0"/>
        <edge id="-146483524#2" sampledSeconds="0.00" departed="0" arrived="0" entered="0" left="0" laneChangedFrom="0" laneChangedTo="0"/>
        <edge id="-146483524#3" sampledSeconds="0.00" departed="0" arrived="0" entered="0" left="0" laneChangedFrom="0" laneChangedTo="0"/>
        <edge id="-146483524#4" sampledSeconds="0.00" departed="0" arrived="0" entered="0" left="0" laneChangedFrom="0" laneChangedTo="0"/>
        <edge id="-148113999#0" sampledSeconds="758.50" traveltime="9.25" overlapTraveltime="9.74" density="1.72" laneDensity="1.72" occupancy="1.16" waitingTime="21.00" timeLoss="144.18" speed="13.32" speedRelative="0.80" departed="1" arrived="1" entered="77" left="77" laneChangedFrom="0" laneChangedTo="0"/>
        <edge id="-148113999#1" sampledSeconds="156.53" traveltime="1.11" overlapTraveltime="2.08" density="5.90" laneDensity="5.90" occupancy="2.11" waitingTime="0.00" timeLoss="87.04" speed="7.29" speedRelative="0.44" departed="0" arrived="1" entered="79" left="78" laneChangedFrom="0" laneChangedTo="0"/>
        <edge id="-148113999#2" sampledSeconds="27.14" traveltime="6.38" overlapTraveltime="6.99" density="0.16" laneDensity="0.16" occupancy="0.09" waitingTime="0.00" timeLoss="13.53" speed="7.95" speedRelative="0.48" departed="1" arrived="1" entered="3" left="3" laneChangedFrom="0" laneChangedTo="0"/>
        <edge id="-151679580#0" sampledSeconds="0.00" departed="0" arrived="0" entered="0" left="0" laneChangedFrom="0" laneChangedTo="0"/>
        <edge id="-151679580#1" sampledSeconds="0.00" departed="0" arrived="0" entered="0" left="0" laneChangedFrom="0" laneChangedTo="0"/>
        <edge id="-151679581#0" sampledSeconds="0.00" departed="0" arrived="0" entered="0" left="0" laneChangedFrom="0" laneChangedTo="0"/>
        <edge id="-151679581#1" sampledSeconds="0.00" departed="0" arrived="0" entered="0" left="0" laneChangedFrom="0" laneChangedTo="0"/>
        <edge id="-151679581#2" sampledSeconds="0.00" departed="0" arrived="0" entered="0" left="0" laneChangedFrom="0" laneChangedTo="0"/>
        <edge id="-151679581#3" sampledSeconds="0.00" departed="0" arrived="0" entered="0" left="0" laneChangedFrom="0" laneChangedTo="0"/>
        <edge id="-152797023" sampledSeconds="0.00" departed="0" arrived="0" entered="0" left="0" laneChangedFrom="0" laneChangedTo="0"/>
        <edge id="-152797024#0" sampledSeconds="0.00" departed="0" arrived="0" entered="0" left="0" laneChangedFrom="0" laneChangedTo="0"/>
        <edge id="-152797024#1" sampledSeconds="0.00" departed="0" arrived="0" entered="0" left="0" laneChangedFrom="0" laneChangedTo="0"/>
        <edge id="-152797025#0" sampledSeconds="0.00" departed="0" arrived="0" entered="0" left="0" laneChangedFrom="0" laneChangedTo="0"/>
        <edge id="-156591687" sampledSeconds="0.00" departed="0" arrived="0" entered="0" left="0" laneChangedFrom="0" laneChangedTo="0"/>
        <edge id="-158166377#0" sampledSeconds="0.00" departed="0" arrived="0" entered="0" left="0" laneChangedFrom="0" laneChangedTo="0"/>
        <edge id="-158166377#1" sampledSeconds="0.00" departed="0" arrived="0" entered="0" left="0" laneChangedFrom="0" laneChangedTo="0"/>
        <edge id="-158166379#0" sampledSeconds="0.00" departed="0" arrived="0" entered="0" left="0" laneChangedFrom="0" laneChangedTo="0"/>
        <edge id="-158166379#1" sampledSeconds="0.00" departed="0" arrived="0" entered="0" left="0" laneChangedFrom="0" laneChangedTo="0"/>
        <edge id="-158167051" sampledSeconds="0.00" departed="0" arrived="0" entered="0" left="0" laneChangedFrom="0" laneChangedTo="0"/>
        <edge id="-158649582" sampledSeconds="0.00" departed="0" arrived="0" entered="0" left="0" laneChangedFrom="0" laneChangedTo="0"/>
        <edge id="-158649583#0" sampledSeconds="0.00" departed="0" arrived="0" entered="0" left="0" laneChangedFrom="0" laneChangedTo="0"/>
        <edge id="-158649583#1" sampledSeconds="0.00" departed="0" arrived="0" entered="0" left="0" laneChangedFrom="0" laneChangedTo="0"/>
        <edge id="-160936867#0" sampledSeconds="0.00" departed="0" arrived="0" entered="0" left="0" laneChangedFrom="0" laneChangedTo="0"/>
        <edge id="-160936867#1" sampledSeconds="0.00" departed="0" arrived="0" entered="0" left="0" laneChangedFrom="0" laneChangedTo="0"/>
        <edge id="-161446376" sampledSeconds="0.00" departed="0" arrived="0" entered="0" left="0" laneChangedFrom="0" laneChangedTo="0"/>
        <edge id="-164568381#0" sampledSeconds="0.00" departed="0" arrived="0" entered="0" left="0" laneChangedFrom="0" laneChangedTo="0"/>
        <edge id="-164568381#1" sampledSeconds="0.00" departed="0" arrived="0" entered="0" left="0" laneChangedFrom="0" laneChangedTo="0"/>
        <edge id="-164568382#0" sampledSeconds="0.00" departed="0" arrived="0" entered="0" left="0" laneChangedFrom="0" laneChangedTo="0"/>
        <edge id="-164568382#1" sampledSeconds="0.00" departed="0" arrived="0" entered="0" left="0" laneChangedFrom="0" laneChangedTo="0"/>
        <edge id="-164568382#2" sampledSeconds="0.00" departed="0" arrived="0" entered="0" left="0" laneChangedFrom="0" laneChangedTo="0"/>
        <edge id="-164568382#3" sampledSeconds="0.00" departed="0" arrived="0" entered="0" left="0" laneChangedFrom="0" laneChangedTo="0"/>
        <edge id="-164568382#4" sampledSeconds="0.00" departed="0" arrived="0" entered="0" left="0" laneChangedFrom="0" laneChangedTo="0"/>
        <edge id="-164568382#5" sampledSeconds="0.00" departed="0" arrived="0" entered="0" left="0" laneChangedFrom="0" laneChangedTo="0"/>
        <edge id="-164568382#6" sampledSeconds="0.00" departed="0" arrived="0" entered="0" left="0" laneChangedFrom="0" laneChangedTo="0"/>
        <edge id="-169765822#0" sampledSeconds="0.00" departed="0" arrived="0" entered="0" left="0" laneChangedFrom="0" laneChangedTo="0"/>