<?xml version="1.0" encoding="UTF-8"?>

<!-- generated on 2025-10-26 21:46:15 by Eclipse SUMO sumo Version 1.24.0
<sumoConfiguration xmlns:xsi="http://www.w3.org/2001/XMLSchema-instance" xsi:noNamespaceSchemaLocation="http://sumo.dlr.de/xsd/sumoConfiguration.xsd">

    <input>
        <net-file value="C:\Users\kurga\workspace\sity_sim\sumo_config\2025-09-20-14-52-18\osm.net.xml.gz"/>
        <route-files value="C:\Users\kurga\workspace\sity_sim\sumo_config\2025-09-20-14-52-18\osm_pt.rou.xml,C:\Users\kurga\workspace\sity_sim\sumo_config\2025-09-20-14-52-18\osm.bus.trips.xml,C:\Users\kurga\workspace\sity_sim\sumo_config\2025-09-20-14-52-18\osm.passenger.trips.xml"/>
        <additional-files value="C:\Users\kurga\workspace\sity_sim\sumo_config\2025-09-20-14-52-18\osm.poly.xml.gz,C:\Users\kurga\workspace\sity_sim\sumo_config\2025-09-20-14-52-18\osm_stops.add.xml,C:\Users\kurga\workspace\sity_sim\sumo_config\2025-09-20-14-52-18\output.add.xml"/>
    </input>

    <output>
        <tripinfo-output value="C:\Users\kurga\workspace\sity_sim\sumo_config\2025-09-20-14-52-18\tripinfos.xml"/>
        <stop-output value="C:\Users\kurga\workspace\sity_sim\sumo_config\2025-09-20-14-52-18\stopinfos.xml"/>
        <statistic-output value="C:\Users\kurga\workspace\sity_sim\sumo_config\2025-09-20-14-52-18\stats.xml"/>
    </output>

    <processing>
        <ignore-route-errors value="true"/>
        <tls.actuated.jam-threshold value="30"/>
    </processing>

    <routing>
        <device.rerouting.adaptation-steps value="18"/>
        <device.rerouting.adaptation-interval value="10"/>
    </routing>

    <report>
        <verbose value="false"/>
        <no-warnings value="true"/>
        <duration-log.statistics value="true"/>
        <no-step-log value="true"/>
    </report>

    <traci_server>
        <remote-port value="54773"/>
    </traci_server>

    <random_number>
        <seed value="42"/>
    </random_number>

    <gui_only>
        <gui-settings-file value="C:\Users\kurga\workspace\sity_sim\sumo_config\2025-09-20-14-52-18\osm.view.xml"/>
    </gui_only>

</sumoConfiguration>
-->

<meandata xmlns:xsi="http://www.w3.org/2001/XMLSchema-instance" xsi:noNamespaceSchemaLocation="http://sumo.dlr.de/xsd/meandata_file.xsd">
    <interval begin="0.00" end="3600.00" id="wizard_example">
        <edge id="-103855914#1" sampledSeconds="155.59" traveltime="12.50" overlapTraveltime="13.61" density="0.26" laneDensity="0.26" occupancy="0.20" waitingTime="0.00" timeLoss="12.29" speed="12.65" speedRelative="0.91" departed="12" arrived="0" entered="0" left="12" laneChangedFrom="0" laneChangedTo="0"/>
        <edge id="-103907907" sampledSeconds="15.16" traveltime="0.51" overlapTraveltime="2.31" density="1.86" laneDensity="1.86" occupancy="0.32" waitingTime="0.00" timeLoss="6.05" speed="3.87" speedRelative="0.28" departed="0" arrived="3" entered="8" left="5" laneChangedFrom="0" laneChangedTo="0"/>
        <edge id="-103999075#0" sampledSeconds="0.00" departed="0" arrived="0" entered="0" left="0" laneChangedFrom="0" laneChangedTo="0"/>
        <edge id="-103999075#1" sampledSeconds="0.00" departed="0" arrived="0" entered="0" left="0" laneChangedFrom="0" laneChangedTo="0"/>
        <edge id="-103999078#0" sampledSeconds="106.75" traveltime="13.96" overlapTraveltime="15.38" density="0.18" laneDensity="0.18" occupancy="0.12" waitingTime="2.00" timeLoss="22.52" speed="11.21" speedRelative="0.81" departed="2" arrived="1" entered="5" left="6" laneChangedFrom="0" laneChangedTo="0"/>
        <edge id="-103999078#1" sampledSeconds="37.89" traveltime="5.73" overlapTraveltime="6.37" density="0.16" laneDensity="0.16" occupancy="0.12" waitingTime="0.00" timeLoss="7.11" speed="11.93" speedRelative="0.86" departed="0" arrived="1" entered="6" left="5" laneChangedFrom="0" laneChangedTo="0"/>
        <edge id="-103999078#2" sampledSeconds="48.47" traveltime="23.97" overlapTraveltime="25.14" density="0.06" laneDensity="0.06" occupancy="0.07" waitingTime="0.00" timeLoss="13.96" speed="9.89" speedRelative="0.71" departed="1" arrived="1" entered="1" left="1" laneChangedFrom="0" laneChangedTo="0"/>
        <edge id="-103999087#0" sampledSeconds="153.18" traveltime="21.02" overlapTraveltime="22.11" density="0.17" laneDensity="0.17" occupancy="0.14" waitingTime="0.00" timeLoss="23.33" speed="11.64" speedRelative="0.84" departed="1" arrived="1" entered="6" left="6" laneChangedFrom="0" laneChangedTo="0"/>
        <edge id="-103999087#1" sampledSeconds="89.67" traveltime="7.66" overlapTraveltime="9.21" density="0.33" laneDensity="0.33" occupancy="0.26" waitingTime="0.00" timeLoss="25.41" speed="9.08" speedRelative="0.65" departed="2" arrived="2" entered="8" left="8" laneChangedFrom="0" laneChangedTo="0"/>
        <edge id="-103999087#2" sampledSeconds="34.02" traveltime="2.32" overlapTraveltime="3.07" density="0.41" laneDensity="0.41" occupancy="0.25" waitingTime="0.00" timeLoss="8.68" speed="10.11" speedRelative="0.73" departed="2" arrived="4" entered="10" left="8" laneChangedFrom="0" laneChangedTo="0"/>
        <edge id="-103999087#3" sampledSeconds="75.99" traveltime="6.45" overlapTraveltime="6.97" density="0.27" laneDensity="0.27" occupancy="0.17" waitingTime="0.00" timeLoss="6.66" speed="12.34" speedRelative="0.89" departed="1" arrived="1" entered="10" left="10" laneChangedFrom="0" laneChangedTo="0"/>
        <edge id="-103999087#4" sampledSeconds="42.58" traveltime="3.60" overlapTraveltime="4.29" density="0.42" laneDensity="0.42" occupancy="0.23" waitingTime="0.00" timeLoss="16.75" speed="8.23" speedRelative="0.59" departed="0" arrived="0" entered="10" left="10" laneChangedFrom="0" laneChangedTo="0"/>
        <edge id="-103999104#0" sampledSeconds="310.17" traveltime="21.39" overlapTraveltime="22.25" density="0.34" laneDensity="0.34" occupancy="0.20" waitingTime="0.00" timeLoss="38.48" speed="11.50" speedRelative="0.83" departed="3" arrived="1" entered="11" left="13" laneChangedFrom="0" laneChangedTo="0"/>
        <edge id="-103999104#1" sampledSeconds="75.93" traveltime="6.44" overlapTraveltime="7.12" density="0.29" laneDensity="0.29" occupancy="0.18" waitingTime="0.00" timeLoss="14.53" speed="11.06" speedRelative="0.80" departed="2" arrived="3" entered="9" left="8" laneChangedFrom="0" laneChangedTo="0"/>
        <edge id="-103999104#2" sampledSeconds="22.37" traveltime="1.89" overlapTraveltime="2.38" density="0.33" laneDensity="0.33" occupancy="0.15" waitingTime="0.00" timeLoss="5.77" speed="10.37" speedRelative="0.75" departed="2" arrived="1" entered="8" left="9" laneChangedFrom="0" laneChangedTo="0"/>
        <edge id="-103999104#3" sampledSeconds="62.08" traveltime="6.45" overlapTraveltime="6.90" density="0.21" laneDensity="0.21" occupancy="0.11" waitingTime="0.00" timeLoss="3.75" speed="12.83" speedRelative="0.92" departed="0" arrived="1" entered="9" left="8" laneChangedFrom="0" laneChangedTo="0"/>
        <edge id="-103999104#4" sampledSeconds="95.85" traveltime="9.42" overlapTraveltime="9.76" density="0.88" laneDensity="0.88" occupancy="0.41" waitingTime="0.00" timeLoss="18.35" speed="3.61" speedRelative="0.26" departed="3" arrived="1" entered="8" left="9" laneChangedFrom="0" laneChangedTo="0"/>
        <edge id="-103999107#0" sampledSeconds="164.90" traveltime="22.43" overlapTraveltime="23.94" density="0.18" laneDensity="0.18" occupancy="0.15" waitingTime="7.00" timeLoss="38.36" speed="10.70" speedRelative="0.77" departed="3" arrived="3" entered="4" left="4" laneChangedFrom="0" laneChangedTo="0"/>
        <edge id="-103999107#1" sampledSeconds="45.17" traveltime="22.66" overlapTraveltime="23.36" density="0.05" laneDensity="0.05" occupancy="0.05" waitingTime="0.00" timeLoss="9.05" speed="10.38" speedRelative="0.75" departed="1" arrived="1" entered="1" left="1" laneChangedFrom="0" laneChangedTo="0"/>
        <edge id="-104071721#0" sampledSeconds="0.00" departed="0" arrived="0" entered="0" left="0" laneChangedFrom="0" laneChangedTo="0"/>
        <edge id="-104071721#1" sampledSeconds="0.00" departed="0" arrived="0" entered="0" left="0" laneChangedFrom="0" laneChangedTo="0"/>
        <edge id="-104071721#2" sampledSeconds="0.00" departed="0" arrived="0" entered="0" left="0" laneChangedFrom="0" laneChangedTo="0"/>
        <edge id="-104071734#0" sampledSeconds="0.00" departed="0" arrived="0" entered="0" left="0" laneChangedFrom="0" laneChangedTo="0"/>
        <edge id="-104500199" sampledSeconds="0.00" departed="0" arrived="0" entered="0" left="0" laneChangedFrom="0" laneChangedTo="0"/>
        <edge id="-1052526173#0" sampledSeconds="0.00" departed="0" arrived="0" entered="0" left="0" laneChangedFrom="0" laneChangedTo="0"/>
        <edge id="-1052526173#1" sampledSeconds="0.00" departed="0" arrived="0" entered="0" left="0" laneChangedFrom="0" laneChangedTo="0"/>
        <edge id="-1052526173#2" sampledSeconds="0.00" departed="0" arrived="0" entered="0" left="0" laneChangedFrom="0" laneChangedTo="0"/>
        <edge id="-1055495280" sampledSeconds="0.00" departed="0" arrived="0" entered="0" left="0" laneChangedFrom="0" laneChangedTo="0"/>
        <edge id="-105551742#0" sampledSeconds="0.00" departed="0" arrived="0" entered="0" left="0" laneChangedFrom="0" laneChangedTo="0"/>
        <edge id="-105551742#1" sampledSeconds="0.00" departed="0" arrived="0" entered="0" left="0" laneChangedFrom="0" laneChangedTo="0"/>
        <edge id="-105551742#2" sampledSeconds="0.00" departed="0" arrived="0" entered="0" left="0" laneChangedFrom="0" laneChangedTo="0"/>
        <edge id="-105551742#3" sampledSeconds="0.00" departed="0" arrived="0" entered="0" left="0" laneChangedFrom="0" laneChangedTo="0"/>
        <edge id="-1064346092" sampledSeconds="0.00" departed="0" arrived="0" entered="0" left="0" laneChangedFrom="0" laneChangedTo="0"/>
        <edge id="-106993840" sampledSeconds="0.00" departed="0" arrived="0" entered="0" left="0" laneChangedFrom="0" laneChangedTo="0"/>
        <edge id="-108126733" sampledSeconds="0.00" departed="0" arrived="0" entered="0" left="0" laneChangedFrom="0" laneChangedTo="0"/>
        <edge id="-108126734" sampledSeconds="0.00" departed="0" arrived="0" entered="0" left="0" laneChangedFrom="0" laneChangedTo="0"/>
        <edge id="-108126735#0" sampledSeconds="0.00" departed="0" arrived="0" entered="0" left="0" laneChangedFrom="0" laneChangedTo="0"/>
        <edge id="-108126787#0" sampledSeconds="0.00" departed="0" arrived="0" entered="0" left="0" laneChangedFrom="0" laneChangedTo="0"/>
        <edge id="-108126787#1" sampledSeconds="0.00" departed="0" arrived="0" entered="0" left="0" laneChangedFrom="0" laneChangedTo="0"/>
        <edge id="-108126787#2" sampledSeconds="0.00" departed="0" arrived="0" entered="0" left="0" laneChangedFrom="0" laneChangedTo="0"/>
        <edge id="-108126787#3" sampledSeconds="0.00" departed="0" arrived="0" entered="0" left="0" laneChangedFrom="0" laneChangedTo="0"/>
        <edge id="-108151968" sampledSeconds="0.00" departed="0" arrived="0" entered="0" left="0" laneChangedFrom="0" laneChangedTo="0"/>
        <edge id="-108151971#0" sampledSeconds="0.00" departed="0" arrived="0" entered="0" left="0" laneChangedFrom="0" laneChangedTo="0"/>
        <edge id="-108151971#1" sampledSeconds="0.00" departed="0" arrived="0" entered="0" left="0" laneChangedFrom="0" laneChangedTo="0"/>
        <edge id="-108151974" sampledSeconds="0.00" departed="0" arrived="0" entered="0" left="0" laneChangedFrom="0" laneChangedTo="0"/>
        <edge id="-108151976#0" sampledSeconds="0.00" departed="0" arrived="0" entered="0" left="0" laneChangedFrom="0" laneChangedTo="0"/>
        <edge id="-108151976#1" sampledSeconds="0.00" departed="0" arrived="0" entered="0" left="0" laneChangedFrom="0" laneChangedTo="0"/>
        <edge id="-108151976#2" sampledSeconds="0.00" departed="0" arrived="0" entered="0" left="0" laneChangedFrom="0" laneChangedTo="0"/>
        <edge id="-108151976#3" sampledSeconds="0.00" departed="0" arrived="0" entered="0" left="0" laneChangedFrom="0" laneChangedTo="0"/>
        <edge id="-108151976#4" sampledSeconds="0.00" departed="0" arrived="0" entered="0" left="0" laneChangedFrom="0" laneChangedTo="0"/>
        <edge id="-109830590#0" sampledSeconds="162.00" overlapTraveltime="100000.00" density="1.01" laneDensity="1.01" occupancy="0.46" waitingTime="0.00" timeLoss="0.00" speed="0.00" speedRelative="0.00" departed="1" arrived="0" entered="0" left="1" laneChangedFrom="0" laneChangedTo="0" vaporized="1"/>
        <edge id="-109830590#1" sampledSeconds="0.00" departed="0" arrived="0" entered="0" left="0" laneChangedFrom="0" laneChangedTo="0"/>
        <edge id="-109830590#2" sampledSeconds="0.00" departed="0" arrived="0" entered="0" left="0" laneChangedFrom="0" laneChangedTo="0"/>
        <edge id="-109830590#3" sampledSeconds="0.00" departed="0" arrived="0" entered="0" left="0" laneChangedFrom="0" laneChangedTo="0"/>
        <edge id="-1099310698" sampledSeconds="242.40" traveltime="11.75" overlapTraveltime="12.30" density="0.54" laneDensity="0.54" occupancy="0.34" waitingTime="0.00" timeLoss="56.12" speed="10.76" speedRelative="0.77" departed="2" arrived="4" entered="18" left="16" laneChangedFrom="0" laneChangedTo="0"/>
        <edge id="-110742921" sampledSeconds="0.00" departed="0" arrived="0" entered="0" left="0" laneChangedFrom="0" laneChangedTo="0"/>
        <edge id="-110742922#0" sampledSeconds="0.00" departed="0" arrived="0" entered="0" left="0" laneChangedFrom="0" laneChangedTo="0"/>
        <edge id="-110742922#1" sampledSeconds="0.00" departed="0" arrived="0" entered="0" left="0" laneChangedFrom="0" laneChangedTo="0"/>
        <edge id="-110742922#2" sampledSeconds="0.00" departed="0" arrived="0" entered="0" left="0" laneChangedFrom="0" laneChangedTo="0"/>
        <edge id="-111793047" sampledSeconds="0.00" departed="0" arrived="0" entered="0" left="0" laneChangedFrom="0" laneChangedTo="0"/>
        <edge id="-114835839#0" sampledSeconds="121.52" traveltime="11.77" overlapTraveltime="12.50" density="0.24" laneDensity="0.24" occupancy="0.21" waitingTime="0.00" timeLoss="17.81" speed="11.95" speedRelative="0.86" departed="0" arrived="10" entered="10" left="0" laneChangedFrom="0" laneChangedTo="0"/>
        <edge id="-114835839#1" sampledSeconds="270.50" traveltime="37.59" overlapTraveltime="38.70" density="0.16" laneDensity="0.16" occupancy="0.10" waitingTime="2.00" timeLoss="38.61" speed="12.09" speedRelative="0.87" departed="1" arrived="1" entered="6" left="6" laneChangedFrom="0" laneChangedTo="0"/>
        <edge id="-114835856" sampledSeconds="243.11" traveltime="39.57" overlapTraveltime="40.93" density="0.15" laneDensity="0.15" occupancy="0.14" waitingTime="0.00" timeLoss="34.07" speed="11.60" speedRelative="0.84" departed="1" arrived="2" entered="5" left="4" laneChangedFrom="0" laneChangedTo="0"/>
        <edge id="-1148461884#0" sampledSeconds="846.06" traveltime="9.86" overlapTraveltime="11.38" density="2.69" laneDensity="2.69" occupancy="1.79" waitingTime="101.00" timeLoss="313.56" speed="8.32" speedRelative="0.60" departed="4" arrived="2" entered="72" left="73" laneChangedFrom="0" laneChangedTo="0"/>
        <edge id="-1148461884#1" sampledSeconds="585.78" traveltime="6.78" overlapTraveltime="7.34" density="1.85" laneDensity="1.85" occupancy="1.14" waitingTime="0.00" timeLoss="36.31" speed="12.91" speedRelative="0.93" departed="2" arrived="4" entered="78" left="76" laneChangedFrom="0" laneChangedTo="0"/>
        <edge id="-1148461884#3" sampledSeconds="781.74" traveltime="7.63" overlapTraveltime="8.49" density="2.58" laneDensity="2.58" occupancy="1.69" waitingTime="9.00" timeLoss="159.98" speed="10.78" speedRelative="0.78" departed="6" arrived="1" entered="87" left="92" laneChangedFrom="0" laneChangedTo="0"/>
        <edge id="-1155202126#1" sampledSeconds="7045.63" traveltime="87.20" overlapTraveltime="89.67" density="13.49" laneDensity="6.74" occupancy="5.23" waitingTime="5565.00" timeLoss="6320.35" speed="1.71" speedRelative="0.10" departed="1" arrived="3" entered="83" left="69" laneChangedFrom="0" laneChangedTo="0"/>
        <edge id="-1173087136#0" sampledSeconds="0.00" departed="0" arrived="0" entered="0" left="0" laneChangedFrom="0" laneChangedTo="0"/>
        <edge id="-1173087136#1" sampledSeconds="0.00" departed="0" arrived="0" entered="0" left="0" laneChangedFrom="0" laneChangedTo="0"/>
        <edge id="-1182981224" sampledSeconds="0.00" departed="0" arrived="0" entered="0" left="0" laneChangedFrom="0" laneChangedTo="0"/>
        <edge id="-118382014" sampledSeconds="0.00" departed="0" arrived="0" entered="0" left="0" laneChangedFrom="0" laneChangedTo="0"/>
        <edge id="-118382015#0" sampledSeconds="0.00" departed="0" arrived="0" entered="0" left="0" laneChangedFrom="0" laneChangedTo="0"/>
        <edge id="-118382015#1" sampledSeconds="0.00" departed="0" arrived="0" entered="0" left="0" laneChangedFrom="0" laneChangedTo="0"/>
        <edge id="-1190628389#0" sampledSeconds="0.00" departed="0" arrived="0" entered="0" left="0" laneChangedFrom="0" laneChangedTo="0"/>
        <edge id="-1190628389#1" sampledSeconds="0.00" departed="0" arrived="0" entered="0" left="0" laneChangedFrom="0" laneChangedTo="0"/>
        <edge id="-1190628393" sampledSeconds="432.88" traveltime="5.77" overlapTraveltime="6.45" density="1.50" laneDensity="1.50" occupancy="1.03" waitingTime="0.00" timeLoss="71.71" speed="13.60" speedRelative="0.82" departed="0" arrived="2" entered="67" left="65" laneChangedFrom="0" laneChangedTo="0"/>
        <edge id="-1196051035" sampledSeconds="0.00" departed="0" arrived="0" entered="0" left="0" laneChangedFrom="0" laneChangedTo="0"/>
        <edge id="-1198901675" sampledSeconds="0.00" departed="0" arrived="0" entered="0" left="0" laneChangedFrom="0" laneChangedTo="0"/>
        <edge id="-1198901676" sampledSeconds="0.00" departed="0" arrived="0" entered="0" left="0" laneChangedFrom="0" laneChangedTo="0"/>
        <edge id="-1198901677" sampledSeconds="0.00" departed="0" arrived="0" entered="0" left="0" laneChangedFrom="0" laneChangedTo="0"/>
        <edge id="-1198901678#1" sampledSeconds="0.00" departed="0" arrived="0" entered="0" left="0" laneChangedFrom="0" laneChangedTo="0"/>
        <edge id="-1198925406" sampledSeconds="0.00" departed="0" arrived="0" entered="0" left="0" laneChangedFrom="0" laneChangedTo="0"/>
        <edge id="-1198925407" sampledSeconds="0.00" departed="0" arrived="0" entered="0" left="0" laneChangedFrom="0" laneChangedTo="0"/>
        <edge id="-1214517537" sampledSeconds="0.00" departed="0" arrived="0" entered="0" left="0" laneChangedFrom="0" laneChangedTo="0"/>
        <edge id="-1214517538" sampledSeconds="0.00" departed="0" arrived="0" entered="0" left="0" laneChangedFrom="0" laneChangedTo="0"/>
        <edge id="-126329647" sampledSeconds="0.00" departed="0" arrived="0" entered="0" left="0" laneChangedFrom="0" laneChangedTo="0"/>
        <edge id="-126329649#0" sampledSeconds="0.00" departed="0" arrived="0" entered="0" left="0" laneChangedFrom="0" laneChangedTo="0"/>
        <edge id="-126329649#1" sampledSeconds="0.00" departed="0" arrived="0" entered="0" left="0" laneChangedFrom="0" laneChangedTo="0"/>
        <edge id="-1266528613#0" sampledSeconds="0.00" departed="0" arrived="0" entered="0" left="0" laneChangedFrom="0" laneChangedTo="0"/>
        <edge id="-1266528613#1" sampledSeconds="0.00" departed="0" arrived="0" entered="0" left="0" laneChangedFrom="0" laneChangedTo="0"/>
        <edge id="-127323466#0" sampledSeconds="0.00" departed="0" arrived="0" entered="0" left="0" laneChangedFrom="0" laneChangedTo="0"/>
        <edge id="-127323466#1" sampledSeconds="0.00" departed="0" arrived="0" entered="0" left="0" laneChangedFrom="0" laneChangedTo="0"/>
        <edge id="-127325741" sampledSeconds="176.00" overlapTraveltime="100000.00" density="1.31" laneDensity="1.31" occupancy="0.59" waitingTime="0.00" timeLoss="0.00" speed="0.00" speedRelative="0.00" departed="1" arrived="0" entered="0" left="1" laneChangedFrom="0" laneChangedTo="0" vaporized="1"/>
        <edge id="-1293820838#0" sampledSeconds="0.00" departed="0" arrived="0" entered="0" left="0" laneChangedFrom="0" laneChangedTo="0"/>
        <edge id="-1293820838#1" sampledSeconds="0.00" departed="0" arrived="0" entered="0" left="0" laneChangedFrom="0" laneChangedTo="0"/>
        <edge id="-130847495#0" sampledSeconds="0.00" departed="0" arrived="0" entered="0" left="0" laneChangedFrom="0" laneChangedTo="0"/>
        <edge id="-130847496#0" sampledSeconds="0.00" departed="0" arrived="0" entered="0" left="0" laneChangedFrom="0" laneChangedTo="0"/>
        <edge id="-130847497" sampledSeconds="0.00" departed="0" arrived="0" entered="0" left="0" laneChangedFrom="0" laneChangedTo="0"/>
        <edge id="-130847498" sampledSeconds="0.00" departed="0" arrived="0" entered="0" left="0" laneChangedFrom="0" laneChangedTo="0"/>
        <edge id="-130848969" sampledSeconds="0.00" departed="0" arrived="0" entered="0" left="0" laneChangedFrom="0" laneChangedTo="0"/>
        <edge id="-133352655" sampledSeconds="0.00" departed="0" arrived="0" entered="0" left="0" laneChangedFrom="0" laneChangedTo="0"/>
        <edge id="-135082465#0" sampledSeconds="258.76" traveltime="2.57" overlapTraveltime="3.03" density="1.89" laneDensity="0.94" occupancy="0.57" waitingTime="0.00" timeLoss="26.03" speed="14.95" speedRelative="0.90" departed="5" arrived="3" entered="81" left="83" laneChangedFrom="0" laneChangedTo="0"/>
        <edge id="-135082465#1" sampledSeconds="168.81" traveltime="1.54" overlapTraveltime="2.02" density="2.00" laneDensity="1.00" occupancy="0.56" waitingTime="0.00" timeLoss="13.08" speed="15.38" speedRelative="0.92" departed="2" arrived="4" entered="83" left="81" laneChangedFrom="1" laneChangedTo="1"/>
        <edge id="-135082465#2" sampledSeconds="447.52" traveltime="4.87" overlapTraveltime="5.35" density="1.87" laneDensity="0.94" occupancy="0.62" waitingTime="0.00" timeLoss="76.12" speed="13.81" speedRelative="0.83" departed="1" arrived="1" entered="83" left="83" laneChangedFrom="17" laneChangedTo="17"/>
        <edge id="-1370340549" sampledSeconds="0.00" departed="0" arrived="0" entered="0" left="0" laneChangedFrom="0" laneChangedTo="0"/>
        <edge id="-1384455436#0" sampledSeconds="0.00" departed="0" arrived="0" entered="0" left="0" laneChangedFrom="0" laneChangedTo="0"/>
        <edge id="-1384455436#1" sampledSeconds="0.00" departed="0" arrived="0" entered="0" left="0" laneChangedFrom="0" laneChangedTo="0"/>
        <edge id="-1384455436#2" sampledSeconds="0.00" departed="0" arrived="0" entered="0" left="0" laneChangedFrom="0" laneChangedTo="0"/>
        <edge id="-1384455436#3" sampledSeconds="0.00" departed="0" arrived="0" entered="0" left="0" laneChangedFrom="0" laneChangedTo="0"/>
        <edge id="-1384455436#4" sampledSeconds="0.00" departed="0" arrived="0" entered="0" left="0" laneChangedFrom="0" laneChangedTo="0"/>
        <edge id="-138945312" sampledSeconds="0.00" departed="0" arrived="0" entered="0" left="0" laneChangedFrom="0" laneChangedTo="0"/>
        <edge id="-1390923580#0" sampledSeconds="0.00" departed="0" arrived="0" entered="0" left="0" laneChangedFrom="0" laneChangedTo="0"/>
        <edge id="-1390923580#1" sampledSeconds="0.00" departed="0" arrived="0" entered="0" left="0" laneChangedFrom="0" laneChangedTo="0"/>
        <edge id="-1390923580#2" sampledSeconds="0.00" departed="0" arrived="0" entered="0" left="0" laneChangedFrom="0" laneChangedTo="0"/>
        <edge id="-1390923581" sampledSeconds="0.00" departed="0" arrived="0" entered="0" left="0" laneChangedFrom="0" laneChangedTo="0"/>
        <edge id="-1395653504" sampledSeconds="0.00" departed="0" arrived="0" entered="0" left="0" laneChangedFrom="0" laneChangedTo="0"/>
        <edge id="-143229322" sampledSeconds="0.00" departed="0" arrived="0" entered="0" left="0" laneChangedFrom="0" laneChangedTo="0"/>
        <edge id="-143229324" sampledSeconds="0.00" departed="0" arrived="0" entered="0" left="0" laneChangedFrom="0" laneChangedTo="0"/>
        <edge id="-146483523" sampledSeconds="0.00" departed="0" arrived="0" entered="0" left="0" laneChangedFrom="0" laneChangedTo="0"/>
        <edge id="-146483524#0" sampledSeconds="0.00" departed="0" arrived="0" entered="0" left="0" laneChangedFrom="0" laneChangedTo="0"/>
        <edge id="-146483524#1" sampledSeconds="0.00" departed="0" arrived="0" entered="0" left="0" laneChangedFrom="0" laneChangedTo="0"/>
        <edge id="-146483524#2" sampledSeconds="0.00" departed="0" arrived="0" entered="0" left="0" laneChangedFrom="0" laneChangedTo="0"/>
        <edge id="-146483524#3" sampledSeconds="0.00" departed="0" arrived="0" entered="0" left="0" laneChangedFrom="0" laneChangedTo="0"/>
        <edge id="-146483524#4" sampledSeconds="163.00" overlapTraveltime="100000.00" density="1.42" laneDensity="1.42" occupancy="0.64" waitingTime="0.00" timeLoss="0.00" speed="0.00" speedRelative="0.00" departed="1" arrived="0" entered="0" left="1" laneChangedFrom="0" laneChangedTo="0" vaporized="1"/>
        <edge id="-148113999#0" sampledSeconds="724.85" traveltime="8.85" overlapTraveltime="9.32" density="1.64" laneDensity="1.64" occupancy="1.13" waitingTime="0.00" timeLoss="110.46" speed="13.95" speedRelative="0.84" departed="1" arrived="1" entered="77" left="77" laneChangedFrom="0" laneChangedTo="0"/>
        <edge id="-148113999#1" sampledSeconds="157.09" traveltime="1.13" overlapTraveltime="2.10" density="5.92" laneDensity="5.92" occupancy="2.11" waitingTime="0.00" timeLoss="87.97" speed="7.23" speedRelative="0.43" departed="0" arrived="1" entered="79" left="77" laneChangedFrom="0" laneChangedTo="0"/>
        <edge id="-148113999#2" sampledSeconds="27.17" traveltime="6.51" overlapTraveltime="7.17" density="0.16" laneDensity="0.16" occupancy="0.09" waitingTime="0.00" timeLoss="13.96" speed="7.75" speedRelative="0.46" departed="1" arrived="1" entered="3" left="3" laneChangedFrom="0" laneChangedTo="0"/>
        <edge id="-151679580#0" sampledSeconds="0.00" departed="0" arrived="0" entered="0" left="0" laneChangedFrom="0" laneChangedTo="0"/>
        <edge id="-151679580#1" sampledSeconds="0.00" departed="0" arrived="0" entered="0" left="0" laneChangedFrom="0" laneChangedTo="0"/>
        <edge id="-151679581#0" sampledSeconds="0.00" departed="0" arrived="0" entered="0" left="0" laneChangedFrom="0" laneChangedTo="0"/>
        <edge id="-151679581#1" sampledSeconds="0.00" departed="0" arrived="0" entered="0" left="0" laneChangedFrom="0" laneChangedTo="0"/>
        <edge id="-151679581#2" sampledSeconds="0.00" departed="0" arrived="0" entered="0" left="0" laneChangedFrom="0" laneChangedTo="0"/>
        <edge id="-151679581#3" sampledSeconds="0.00" departed="0" arrived="0" entered="0" left="0" laneChangedFrom="0" laneChangedTo="0"/>
        <edge id="-152797023" sampledSeconds="0.00" departed="0" arrived="0" entered="0" left="0" laneChangedFrom="0" laneChangedTo="0"/>
        <edge id="-152797024#0" sampledSeconds="0.00" departed="0" arrived="0" entered="0" left="0" laneChangedFrom="0" laneChangedTo="0"/>
        <edge id="-152797024#1" sampledSeconds="0.00" departed="0" arrived="0" entered="0" left="0" laneChangedFrom="0" laneChangedTo="0"/>
        <edge id="-152797025#0" sampledSeconds="0.00" departed="0" arrived="0" entered="0" left="0" laneChangedFrom="0" laneChangedTo="0"/>
        <edge id="-156591687" sampledSeconds="0.00" departed="0" arrived="0" entered="0" left="0" laneChangedFrom="0" laneChangedTo="0"/>
        <edge id="-158166377#0" sampledSeconds="0.00" departed="0" arrived="0" entered="0" left="0" laneChangedFrom="0" laneChangedTo="0"/>
        <edge id="-158166377#1" sampledSeconds="0.00" departed="0" arrived="0" entered="0" left="0" laneChangedFrom="0" laneChangedTo="0"/>
        <edge id="-158166379#0" sampledSeconds="0.00" departed="0" arrived="0" entered="0" left="0" laneChangedFrom="0" laneChangedTo="0"/>
        <edge id="-158166379#1" sampledSeconds="0.00" departed="0" arrived="0" entered="0" left="0" laneChangedFrom="0" laneChangedTo="0"/>
        <edge id="-158167051" sampledSeconds="0.00" departed="0" arrived="0" entered="0" left="0" laneChangedFrom="0" laneChangedTo="0"/>
        <edge id="-158649582" sampledSeconds="0.00" departed="0" arrived="0" entered="0" left="0" laneChangedFrom="0" laneChangedTo="0"/>
        <edge id="-158649583#0" sampledSeconds="0.00" departed="0" arrived="0" entered="0" left="0" laneChangedFrom="0" laneChangedTo="0"/>
        <edge id="-158649583#1" sampledSeconds="0.00" departed="0" arrived="0" entered="0" left="0" laneChangedFrom="0" laneChangedTo="0"/>
        <edge id="-160936867#0" sampledSeconds="0.00" departed="0" arrived="0" entered="0" left="0" laneChangedFrom="0" laneChangedTo="0"/>
        <edge id="-160936867#1" sampledSeconds="0.00" departed="0" arrived="0" entered="0" left="0" laneChangedFrom="0" laneChangedTo="0"/>
        <edge id="-161446376" sampledSeconds="0.00" departed="0" arrived="0" entered="0" left="0" laneChangedFrom="0" laneChangedTo="0"/>
        <edge id="-164568381#0" sampledSeconds="0.00" departed="0" arrived="0" entered="0" left="0" laneChangedFrom="0" laneChangedTo="0"/>
        <edge id="-164568381#1" sampledSeconds="0.00" departed="0" arrived="0" entered="0" left="0" laneChangedFrom="0" laneChangedTo="0"/>
        <edge id="-164568382#0" sampledSeconds="0.00" departed="0" arrived="0" entered="0" left="0" laneChangedFrom="0" laneChangedTo="0"/>
        <edge id="-164568382#1" sampledSeconds="0.00" departed="0" arrived="0" entered="0" left="0" laneChangedFrom="0" laneChangedTo="0"/>
        <edge id="-164568382#2" sampledSeconds="0.00" departed="0" arrived="0" entered="0" left="0" laneChangedFrom="0" laneChangedTo="0"/>
        <edge id="-164568382#3" sampledSeconds="0.00" departed="0" arrived="0" entered="0" left="0" laneChangedFrom="0" laneChangedTo="0"/>