<?xml version="1.0" encoding="UTF-8"?>

<!-- generated on 2025-11-09 12:05:48 by Eclipse SUMO sumo Version 1.24.0
<sumoConfiguration xmlns:xsi="http://www.w3.org/2001/XMLSchema-instance" xsi:noNamespaceSchemaLocation="http://sumo.dlr.de/xsd/sumoConfiguration.xsd">

    <input>
        <net-file value="C:\Users\kurga\workspace\sity_sim\sumo_config\2025-09-20-14-52-18\osm.net.xml.gz"/>
        <route-files value="C:\Users\kurga\workspace\sity_sim\sumo_config\2025-09-20-14-52-18\osm_pt.rou.xml,C:\Users\kurga\workspace\sity_sim\sumo_config\2025-09-20-14-52-18\osm.bus.trips.xml,C:\Users\kurga\workspace\sity_sim\sumo_config\2025-09-20-14-52-18\osm.passenger.trips.xml"/>
        <additional-files value="C:\Users\kurga\workspace\sity_sim\sumo_config\2025-09-20-14-52-18\osm.poly.xml.gz,C:\Users\kurga\workspace\sity_sim\sumo_config\2025-09-20-14-52-18\osm_stops.add.xml,C:\Users\kurga\workspace\sity_sim\sumo_config\2025-09-20-14-52-18\output.add.xml"/>
    </input>

    <output>
        <tripinfo-output value="C:\Users\kurga\workspace\sity_sim\sumo_config\2025-09-20-14-52-18\tripinfos.xml"/>
        <stop-output value="C:\Users\kurga\workspace\sity_sim\sumo_config\2025-09-20-14-52-18\stopinfos.xml"/>
        <statistic-output value="C:\Users\kurga\workspace\sity_sim\sumo_config\2025-09-20-14-52-18\stats.xml"/>
    </output>

    <processing>
        <ignore-route-errors value="true"/>
        <tls.actuated.jam-threshold value="30"/>
    </processing>

    <routing>
        <device.rerouting.adaptation-steps value="18"/>
        <device.rerouting.adaptation-interval value="10"/>
    </routing>

    <report>
        <verbose value="true"/>
        <no-warnings value="true"/>
        <log value="c:\Users\kurga\workspace\sity_sim\scripts\..\agents\total_reward_lr01_df099_epd0999_with_accident_in_reward\sumo.log"/>
        <error-log value="c:\Users\kurga\workspace\sity_sim\scripts\..\agents\total_reward_lr01_df099_epd0999_with_accident_in_reward\sumo_errors.log"/>
        <duration-log.disable value="false"/>
        <duration-log.statistics value="true"/>
        <no-step-log value="true"/>
    </report>

    <gui_only>
        <gui-settings-file value="C:\Users\kurga\workspace\sity_sim\sumo_config\2025-09-20-14-52-18\osm.view.xml"/>
    </gui_only>

</sumoConfiguration>
-->

<meandata xmlns:xsi="http://www.w3.org/2001/XMLSchema-instance" xsi:noNamespaceSchemaLocation="http://sumo.dlr.de/xsd/meandata_file.xsd">
    <interval begin="0.00" end="761.00" id="wizard_example">
        <edge id="-103855914#1" sampledSeconds="40.45" traveltime="13.05" overlapTraveltime="14.09" density="0.32" laneDensity="0.32" occupancy="0.23" waitingTime="0.00" timeLoss="3.09" speed="12.17" speedRelative="0.88" departed="3" arrived="0" entered="0" left="3" laneChangedFrom="0" laneChangedTo="0"/>
        <edge id="-103907907" sampledSeconds="2.00" traveltime="0.63" overlapTraveltime="2.00" density="1.16" laneDensity="1.16" occupancy="0.18" waitingTime="0.00" timeLoss="0.86" speed="3.64" speedRelative="0.26" departed="0" arrived="0" entered="1" left="1" laneChangedFrom="0" laneChangedTo="0"/>
        <edge id="-103999075#0" sampledSeconds="0.00" departed="0" arrived="0" entered="0" left="0" laneChangedFrom="0" laneChangedTo="0"/>
        <edge id="-103999075#1" sampledSeconds="0.00" departed="0" arrived="0" entered="0" left="0" laneChangedFrom="0" laneChangedTo="0"/>
        <edge id="-103999078#0" sampledSeconds="28.88" traveltime="13.13" overlapTraveltime="14.46" density="0.23" laneDensity="0.23" occupancy="0.19" waitingTime="0.00" timeLoss="3.79" speed="12.05" speedRelative="0.87" departed="0" arrived="0" entered="2" left="2" laneChangedFrom="0" laneChangedTo="0"/>
        <edge id="-103999078#1" sampledSeconds="20.96" traveltime="6.28" overlapTraveltime="7.02" density="0.41" laneDensity="0.41" occupancy="0.35" waitingTime="0.00" timeLoss="4.74" speed="11.00" speedRelative="0.79" departed="0" arrived="1" entered="3" left="2" laneChangedFrom="0" laneChangedTo="0"/>
        <edge id="-103999078#2" sampledSeconds="0.00" departed="0" arrived="0" entered="0" left="0" laneChangedFrom="0" laneChangedTo="0"/>
        <edge id="-103999087#0" sampledSeconds="39.03" traveltime="18.88" overlapTraveltime="19.52" density="0.21" laneDensity="0.21" occupancy="0.10" waitingTime="0.00" timeLoss="4.21" speed="13.02" speedRelative="0.94" departed="0" arrived="1" entered="2" left="1" laneChangedFrom="0" laneChangedTo="0"/>
        <edge id="-103999087#1" sampledSeconds="19.82" traveltime="7.96" overlapTraveltime="10.02" density="0.35" laneDensity="0.35" occupancy="0.27" waitingTime="0.00" timeLoss="7.65" speed="8.39" speedRelative="0.60" departed="0" arrived="0" entered="2" left="2" laneChangedFrom="0" laneChangedTo="0"/>
        <edge id="-103999087#2" sampledSeconds="9.10" traveltime="4.43" overlapTraveltime="5.99" density="0.52" laneDensity="0.52" occupancy="0.46" waitingTime="0.00" timeLoss="5.57" speed="5.62" speedRelative="0.40" departed="1" arrived="0" entered="1" left="2" laneChangedFrom="0" laneChangedTo="0"/>
        <edge id="-103999087#3" sampledSeconds="11.54" traveltime="5.43" overlapTraveltime="5.77" density="0.19" laneDensity="0.19" occupancy="0.09" waitingTime="0.00" timeLoss="0.42" speed="14.58" speedRelative="1.05" departed="0" arrived="1" entered="2" left="1" laneChangedFrom="0" laneChangedTo="0"/>
        <edge id="-103999087#4" sampledSeconds="7.81" traveltime="3.50" overlapTraveltime="3.90" density="0.37" laneDensity="0.37" occupancy="0.15" waitingTime="0.00" timeLoss="3.45" speed="8.44" speedRelative="0.61" departed="0" arrived="0" entered="2" left="2" laneChangedFrom="0" laneChangedTo="0"/>
        <edge id="-103999104#0" sampledSeconds="109.02" traveltime="20.79" overlapTraveltime="21.90" density="0.57" laneDensity="0.57" occupancy="0.43" waitingTime="0.00" timeLoss="15.92" speed="11.77" speedRelative="0.85" departed="1" arrived="1" entered="4" left="4" laneChangedFrom="0" laneChangedTo="0"/>
        <edge id="-103999104#1" sampledSeconds="21.99" traveltime="5.03" overlapTraveltime="5.64" density="0.40" laneDensity="0.40" occupancy="0.25" waitingTime="0.00" timeLoss="1.26" speed="13.98" speedRelative="1.01" departed="0" arrived="2" entered="4" left="2" laneChangedFrom="0" laneChangedTo="0"/>
        <edge id="-103999104#2" sampledSeconds="7.16" traveltime="1.31" overlapTraveltime="1.82" density="0.50" laneDensity="0.50" occupancy="0.25" waitingTime="0.00" timeLoss="0.33" speed="14.35" speedRelative="1.03" departed="0" arrived="0" entered="4" left="4" laneChangedFrom="0" laneChangedTo="0"/>
        <edge id="-103999104#3" sampledSeconds="25.27" traveltime="5.85" overlapTraveltime="6.34" density="0.40" laneDensity="0.40" occupancy="0.26" waitingTime="0.00" timeLoss="1.59" speed="14.17" speedRelative="1.02" departed="0" arrived="0" entered="4" left="4" laneChangedFrom="0" laneChangedTo="0"/>
        <edge id="-103999104#4" sampledSeconds="17.31" traveltime="3.72" overlapTraveltime="4.36" density="0.75" laneDensity="0.75" occupancy="0.40" waitingTime="0.00" timeLoss="7.52" speed="8.53" speedRelative="0.61" departed="0" arrived="0" entered="4" left="4" laneChangedFrom="0" laneChangedTo="0"/>
        <edge id="-103999107#0" sampledSeconds="28.06" traveltime="26.63" overlapTraveltime="28.63" density="0.15" laneDensity="0.15" occupancy="0.07" waitingTime="1.00" timeLoss="9.27" speed="8.83" speedRelative="0.64" departed="1" arrived="0" entered="0" left="1" laneChangedFrom="0" laneChangedTo="0"/>
        <edge id="-103999107#1" sampledSeconds="17.49" traveltime="17.16" overlapTraveltime="17.49" density="0.10" laneDensity="0.10" occupancy="0.05" waitingTime="0.00" timeLoss="2.14" speed="13.64" speedRelative="0.98" departed="0" arrived="1" entered="1" left="0" laneChangedFrom="0" laneChangedTo="0"/>
        <edge id="-104071721#0" sampledSeconds="0.00" departed="0" arrived="0" entered="0" left="0" laneChangedFrom="0" laneChangedTo="0"/>
        <edge id="-104071721#1" sampledSeconds="0.00" departed="0" arrived="0" entered="0" left="0" laneChangedFrom="0" laneChangedTo="0"/>
        <edge id="-104071721#2" sampledSeconds="0.00" departed="0" arrived="0" entered="0" left="0" laneChangedFrom="0" laneChangedTo="0"/>
        <edge id="-104071734#0" sampledSeconds="0.00" departed="0" arrived="0" entered="0" left="0" laneChangedFrom="0" laneChangedTo="0"/>
        <edge id="-104500199" sampledSeconds="0.00" departed="0" arrived="0" entered="0" left="0" laneChangedFrom="0" laneChangedTo="0"/>
        <edge id="-1052526173#0" sampledSeconds="0.00" departed="0" arrived="0" entered="0" left="0" laneChangedFrom="0" laneChangedTo="0"/>
        <edge id="-1052526173#1" sampledSeconds="0.00" departed="0" arrived="0" entered="0" left="0" laneChangedFrom="0" laneChangedTo="0"/>
        <edge id="-1052526173#2" sampledSeconds="0.00" departed="0" arrived="0" entered="0" left="0" laneChangedFrom="0" laneChangedTo="0"/>
        <edge id="-1055495280" sampledSeconds="0.00" departed="0" arrived="0" entered="0" left="0" laneChangedFrom="0" laneChangedTo="0"/>
        <edge id="-105551742#0" sampledSeconds="0.00" departed="0" arrived="0" entered="0" left="0" laneChangedFrom="0" laneChangedTo="0"/>
        <edge id="-105551742#1" sampledSeconds="0.00" departed="0" arrived="0" entered="0" left="0" laneChangedFrom="0" laneChangedTo="0"/>
        <edge id="-105551742#2" sampledSeconds="0.00" departed="0" arrived="0" entered="0" left="0" laneChangedFrom="0" laneChangedTo="0"/>
        <edge id="-105551742#3" sampledSeconds="0.00" departed="0" arrived="0" entered="0" left="0" laneChangedFrom="0" laneChangedTo="0"/>
        <edge id="-1064346092" sampledSeconds="0.00" departed="0" arrived="0" entered="0" left="0" laneChangedFrom="0" laneChangedTo="0"/>
        <edge id="-106993840" sampledSeconds="0.00" departed="0" arrived="0" entered="0" left="0" laneChangedFrom="0" laneChangedTo="0"/>
        <edge id="-108126733" sampledSeconds="0.00" departed="0" arrived="0" entered="0" left="0" laneChangedFrom="0" laneChangedTo="0"/>
        <edge id="-108126734" sampledSeconds="0.00" departed="0" arrived="0" entered="0" left="0" laneChangedFrom="0" laneChangedTo="0"/>
        <edge id="-108126735#0" sampledSeconds="0.00" departed="0" arrived="0" entered="0" left="0" laneChangedFrom="0" laneChangedTo="0"/>
        <edge id="-108126787#0" sampledSeconds="0.00" departed="0" arrived="0" entered="0" left="0" laneChangedFrom="0" laneChangedTo="0"/>
        <edge id="-108126787#1" sampledSeconds="0.00" departed="0" arrived="0" entered="0" left="0" laneChangedFrom="0" laneChangedTo="0"/>
        <edge id="-108126787#2" sampledSeconds="0.00" departed="0" arrived="0" entered="0" left="0" laneChangedFrom="0" laneChangedTo="0"/>
        <edge id="-108126787#3" sampledSeconds="0.00" departed="0" arrived="0" entered="0" left="0" laneChangedFrom="0" laneChangedTo="0"/>
        <edge id="-108151968" sampledSeconds="0.00" departed="0" arrived="0" entered="0" left="0" laneChangedFrom="0" laneChangedTo="0"/>
        <edge id="-108151971#0" sampledSeconds="0.00" departed="0" arrived="0" entered="0" left="0" laneChangedFrom="0" laneChangedTo="0"/>
        <edge id="-108151971#1" sampledSeconds="0.00" departed="0" arrived="0" entered="0" left="0" laneChangedFrom="0" laneChangedTo="0"/>
        <edge id="-108151974" sampledSeconds="0.00" departed="0" arrived="0" entered="0" left="0" laneChangedFrom="0" laneChangedTo="0"/>
        <edge id="-108151976#0" sampledSeconds="0.00" departed="0" arrived="0" entered="0" left="0" laneChangedFrom="0" laneChangedTo="0"/>
        <edge id="-108151976#1" sampledSeconds="0.00" departed="0" arrived="0" entered="0" left="0" laneChangedFrom="0" laneChangedTo="0"/>
        <edge id="-108151976#2" sampledSeconds="0.00" departed="0" arrived="0" entered="0" left="0" laneChangedFrom="0" laneChangedTo="0"/>
        <edge id="-108151976#3" sampledSeconds="0.00" departed="0" arrived="0" entered="0" left="0" laneChangedFrom="0" laneChangedTo="0"/>
        <edge id="-108151976#4" sampledSeconds="0.00" departed="0" arrived="0" entered="0" left="0" laneChangedFrom="0" laneChangedTo="0"/>
        <edge id="-109830590#0" sampledSeconds="0.00" departed="0" arrived="0" entered="0" left="0" laneChangedFrom="0" laneChangedTo="0"/>
        <edge id="-109830590#1" sampledSeconds="0.00" departed="0" arrived="0" entered="0" left="0" laneChangedFrom="0" laneChangedTo="0"/>
        <edge id="-109830590#2" sampledSeconds="0.00" departed="0" arrived="0" entered="0" left="0" laneChangedFrom="0" laneChangedTo="0"/>
        <edge id="-109830590#3" sampledSeconds="0.00" departed="0" arrived="0" entered="0" left="0" laneChangedFrom="0" laneChangedTo="0"/>
        <edge id="-1099310698" sampledSeconds="13.18" traveltime="12.74" overlapTraveltime="13.18" density="0.14" laneDensity="0.14" occupancy="0.06" waitingTime="0.00" timeLoss="2.75" speed="9.88" speedRelative="0.71" departed="0" arrived="0" entered="1" left="1" laneChangedFrom="0" laneChangedTo="0"/>
        <edge id="-110742921" sampledSeconds="0.00" departed="0" arrived="0" entered="0" left="0" laneChangedFrom="0" laneChangedTo="0"/>
        <edge id="-110742922#0" sampledSeconds="0.00" departed="0" arrived="0" entered="0" left="0" laneChangedFrom="0" laneChangedTo="0"/>
        <edge id="-110742922#1" sampledSeconds="0.00" departed="0" arrived="0" entered="0" left="0" laneChangedFrom="0" laneChangedTo="0"/>
        <edge id="-110742922#2" sampledSeconds="0.00" departed="0" arrived="0" entered="0" left="0" laneChangedFrom="0" laneChangedTo="0"/>
        <edge id="-111793047" sampledSeconds="0.00" departed="0" arrived="0" entered="0" left="0" laneChangedFrom="0" laneChangedTo="0"/>
        <edge id="-114835839#0" sampledSeconds="13.28" traveltime="12.40" overlapTraveltime="13.28" density="0.12" laneDensity="0.12" occupancy="0.14" waitingTime="0.00" timeLoss="2.34" speed="11.45" speedRelative="0.82" departed="0" arrived="1" entered="1" left="0" laneChangedFrom="0" laneChangedTo="0"/>
        <edge id="-114835839#1" sampledSeconds="72.36" traveltime="35.13" overlapTraveltime="36.40" density="0.21" laneDensity="0.21" occupancy="0.17" waitingTime="0.00" timeLoss="10.38" speed="12.93" speedRelative="0.93" departed="1" arrived="0" entered="1" left="2" laneChangedFrom="0" laneChangedTo="0"/>
        <edge id="-114835856" sampledSeconds="75.85" traveltime="36.51" overlapTraveltime="37.93" density="0.21" laneDensity="0.21" occupancy="0.18" waitingTime="0.00" timeLoss="7.57" speed="12.49" speedRelative="0.90" departed="0" arrived="0" entered="2" left="2" laneChangedFrom="0" laneChangedTo="0"/>
        <edge id="-1148461884#0" sampledSeconds="94.36" traveltime="7.98" overlapTraveltime="9.56" density="1.42" laneDensity="1.42" occupancy="1.01" waitingTime="1.00" timeLoss="21.62" speed="9.98" speedRelative="0.72" departed="0" arrived="1" entered="10" left="9" laneChangedFrom="0" laneChangedTo="0"/>
        <edge id="-1148461884#1" sampledSeconds="75.02" traveltime="6.96" overlapTraveltime="7.54" density="1.12" laneDensity="1.12" occupancy="0.79" waitingTime="0.00" timeLoss="5.27" speed="12.70" speedRelative="0.91" departed="1" arrived="0" entered="9" left="10" laneChangedFrom="0" laneChangedTo="0"/>
        <edge id="-1148461884#3" sampledSeconds="119.62" traveltime="8.63" overlapTraveltime="9.49" density="1.87" laneDensity="1.87" occupancy="1.44" waitingTime="0.00" timeLoss="33.86" speed="9.77" speedRelative="0.70" departed="3" arrived="1" entered="10" left="12" laneChangedFrom="0" laneChangedTo="0"/>
        <edge id="-1155202126#1" sampledSeconds="830.80" traveltime="42.15" overlapTraveltime="43.98" density="7.52" laneDensity="3.76" occupancy="3.03" waitingTime="536.00" timeLoss="656.22" speed="3.49" speedRelative="0.21" departed="1" arrived="1" entered="18" left="17" laneChangedFrom="0" laneChangedTo="0"/>
        <edge id="-1173087136#0" sampledSeconds="0.00" departed="0" arrived="0" entered="0" left="0" laneChangedFrom="0" laneChangedTo="0"/>
        <edge id="-1173087136#1" sampledSeconds="0.00" departed="0" arrived="0" entered="0" left="0" laneChangedFrom="0" laneChangedTo="0"/>
        <edge id="-1182981224" sampledSeconds="0.00" departed="0" arrived="0" entered="0" left="0" laneChangedFrom="0" laneChangedTo="0"/>
        <edge id="-118382014" sampledSeconds="0.00" departed="0" arrived="0" entered="0" left="0" laneChangedFrom="0" laneChangedTo="0"/>
        <edge id="-118382015#0" sampledSeconds="0.00" departed="0" arrived="0" entered="0" left="0" laneChangedFrom="0" laneChangedTo="0"/>
        <edge id="-118382015#1" sampledSeconds="0.00" departed="0" arrived="0" entered="0" left="0" laneChangedFrom="0" laneChangedTo="0"/>
        <edge id="-1190628389#0" sampledSeconds="0.00" departed="0" arrived="0" entered="0" left="0" laneChangedFrom="0" laneChangedTo="0"/>
        <edge id="-1190628389#1" sampledSeconds="0.00" departed="0" arrived="0" entered="0" left="0" laneChangedFrom="0" laneChangedTo="0"/>
        <edge id="-1190628393" sampledSeconds="116.44" traveltime="5.54" overlapTraveltime="6.49" density="1.91" laneDensity="1.91" occupancy="1.08" waitingTime="0.00" timeLoss="17.00" speed="13.33" speedRelative="0.80" departed="0" arrived="0" entered="18" left="18" laneChangedFrom="0" laneChangedTo="0"/>
        <edge id="-1196051035" sampledSeconds="0.00" departed="0" arrived="0" entered="0" left="0" laneChangedFrom="0" laneChangedTo="0"/>
        <edge id="-1198901675" sampledSeconds="0.00" departed="0" arrived="0" entered="0" left="0" laneChangedFrom="0" laneChangedTo="0"/>
        <edge id="-1198901676" sampledSeconds="0.00" departed="0" arrived="0" entered="0" left="0" laneChangedFrom="0" laneChangedTo="0"/>
        <edge id="-1198901677" sampledSeconds="0.00" departed="0" arrived="0" entered="0" left="0" laneChangedFrom="0" laneChangedTo="0"/>
        <edge id="-1198901678#1" sampledSeconds="0.00" departed="0" arrived="0" entered="0" left="0" laneChangedFrom="0" laneChangedTo="0"/>
        <edge id="-1198925406" sampledSeconds="0.00" departed="0" arrived="0" entered="0" left="0" laneChangedFrom="0" laneChangedTo="0"/>
        <edge id="-1198925407" sampledSeconds="0.00" departed="0" arrived="0" entered="0" left="0" laneChangedFrom="0" laneChangedTo="0"/>
        <edge id="-1214517537" sampledSeconds="0.00" departed="0" arrived="0" entered="0" left="0" laneChangedFrom="0" laneChangedTo="0"/>
        <edge id="-1214517538" sampledSeconds="0.00" departed="0" arrived="0" entered="0" left="0" laneChangedFrom="0" laneChangedTo="0"/>
        <edge id="-126329647" sampledSeconds="0.00" departed="0" arrived="0" entered="0" left="0" laneChangedFrom="0" laneChangedTo="0"/>
        <edge id="-126329649#0" sampledSeconds="0.00" departed="0" arrived="0" entered="0" left="0" laneChangedFrom="0" laneChangedTo="0"/>
        <edge id="-126329649#1" sampledSeconds="0.00" departed="0" arrived="0" entered="0" left="0" laneChangedFrom="0" laneChangedTo="0"/>
        <edge id="-1266528613#0" sampledSeconds="0.00" departed="0" arrived="0" entered="0" left="0" laneChangedFrom="0" laneChangedTo="0"/>
        <edge id="-1266528613#1" sampledSeconds="0.00" departed="0" arrived="0" entered="0" left="0" laneChangedFrom="0" laneChangedTo="0"/>
        <edge id="-127323466#0" sampledSeconds="0.00" departed="0" arrived="0" entered="0" left="0" laneChangedFrom="0" laneChangedTo="0"/>
        <edge id="-127323466#1" sampledSeconds="0.00" departed="0" arrived="0" entered="0" left="0" laneChangedFrom="0" laneChangedTo="0"/>
        <edge id="-127325741" sampledSeconds="0.00" departed="0" arrived="0" entered="0" left="0" laneChangedFrom="0" laneChangedTo="0"/>
        <edge id="-1293820838#0" sampledSeconds="0.00" departed="0" arrived="0" entered="0" left="0" laneChangedFrom="0" laneChangedTo="0"/>
        <edge id="-1293820838#1" sampledSeconds="0.00" departed="0" arrived="0" entered="0" left="0" laneChangedFrom="0" laneChangedTo="0"/>
        <edge id="-130847495#0" sampledSeconds="0.00" departed="0" arrived="0" entered="0" left="0" laneChangedFrom="0" laneChangedTo="0"/>
        <edge id="-130847496#0" sampledSeconds="0.00" departed="0" arrived="0" entered="0" left="0" laneChangedFrom="0" laneChangedTo="0"/>
        <edge id="-130847497" sampledSeconds="0.00" departed="0" arrived="0" entered="0" left="0" laneChangedFrom="0" laneChangedTo="0"/>
        <edge id="-130847498" sampledSeconds="0.00" departed="0" arrived="0" entered="0" left="0" laneChangedFrom="0" laneChangedTo="0"/>
        <edge id="-130848969" sampledSeconds="0.00" departed="0" arrived="0" entered="0" left="0" laneChangedFrom="0" laneChangedTo="0"/>
        <edge id="-133352655" sampledSeconds="0.00" departed="0" arrived="0" entered="0" left="0" laneChangedFrom="0" laneChangedTo="0"/>
        <edge id="-135082465#0" sampledSeconds="56.97" traveltime="2.53" overlapTraveltime="3.03" density="1.97" laneDensity="0.98" occupancy="0.64" waitingTime="0.00" timeLoss="4.79" speed="15.21" speedRelative="0.91" departed="1" arrived="1" entered="18" left="18" laneChangedFrom="0" laneChangedTo="0"/>
        <edge id="-135082465#1" sampledSeconds="35.31" traveltime="1.46" overlapTraveltime="1.98" density="1.98" laneDensity="0.99" occupancy="0.60" waitingTime="0.00" timeLoss="1.11" speed="16.08" speedRelative="0.96" departed="0" arrived="0" entered="18" left="18" laneChangedFrom="0" laneChangedTo="0"/>
        <edge id="-135082465#2" sampledSeconds="99.64" traveltime="4.75" overlapTraveltime="5.25" density="1.97" laneDensity="0.99" occupancy="0.68" waitingTime="0.00" timeLoss="14.69" speed="14.14" speedRelative="0.85" departed="0" arrived="1" entered="19" left="18" laneChangedFrom="5" laneChangedTo="5"/>
        <edge id="-1370340549" sampledSeconds="0.00" departed="0" arrived="0" entered="0" left="0" laneChangedFrom="0" laneChangedTo="0"/>
        <edge id="-1384455436#0" sampledSeconds="0.00" departed="0" arrived="0" entered="0" left="0" laneChangedFrom="0" laneChangedTo="0"/>
        <edge id="-1384455436#1" sampledSeconds="0.00" departed="0" arrived="0" entered="0" left="0" laneChangedFrom="0" laneChangedTo="0"/>
        <edge id="-1384455436#2" sampledSeconds="0.00" departed="0" arrived="0" entered="0" left="0" laneChangedFrom="0" laneChangedTo="0"/>
        <edge id="-1384455436#3" sampledSeconds="0.00" departed="0" arrived="0" entered="0" left="0" laneChangedFrom="0" laneChangedTo="0"/>
        <edge id="-1384455436#4" sampledSeconds="0.00" departed="0" arrived="0" entered="0" left="0" laneChangedFrom="0" laneChangedTo="0"/>
        <edge id="-138945312" sampledSeconds="0.00" departed="0" arrived="0" entered="0" left="0" laneChangedFrom="0" laneChangedTo="0"/>
        <edge id="-1390923580#0" sampledSeconds="0.00" departed="0" arrived="0" entered="0" left="0" laneChangedFrom="0" laneChangedTo="0"/>
        <edge id="-1390923580#1" sampledSeconds="0.00" departed="0" arrived="0" entered="0" left="0" laneChangedFrom="0" laneChangedTo="0"/>
        <edge id="-1390923580#2" sampledSeconds="0.00" departed="0" arrived="0" entered="0" left="0" laneChangedFrom="0" laneChangedTo="0"/>
        <edge id="-1390923581" sampledSeconds="0.00" departed="0" arrived="0" entered="0" left="0" laneChangedFrom="0" laneChangedTo="0"/>
        <edge id="-1395653504" sampledSeconds="0.00" departed="0" arrived="0" entered="0" left="0" laneChangedFrom="0" laneChangedTo="0"/>
        <edge id="-143229322" sampledSeconds="0.00" departed="0" arrived="0" entered="0" left="0" laneChangedFrom="0" laneChangedTo="0"/>
        <edge id="-143229324" sampledSeconds="0.00" departed="0" arrived="0" entered="0" left="0" laneChangedFrom="0" laneChangedTo="0"/>
        <edge id="-146483523" sampledSeconds="0.00" departed="0" arrived="0" entered="0" left="0" laneChangedFrom="0" laneChangedTo="0"/>
        <edge id="-146483524#0" sampledSeconds="0.00" departed="0" arrived="0" entered="0" left="0" laneChangedFrom="0" laneChangedTo="0"/>
        <edge id="-146483524#1" sampledSeconds="0.00" departed="0" arrived="0" entered="0" left="0" laneChangedFrom="0" laneChangedTo="0"/>
        <edge id="-146483524#2" sampledSeconds="0.00" departed="0" arrived="0" entered="0" left="0" laneChangedFrom="0" laneChangedTo="0"/>
        <edge id="-146483524#3" sampledSeconds="0.00" departed="0" arrived="0" entered="0" left="0" laneChangedFrom="0" laneChangedTo="0"/>
        <edge id="-146483524#4" sampledSeconds="0.00" departed="0" arrived="0" entered="0" left="0" laneChangedFrom="0" laneChangedTo="0"/>
        <edge id="-148113999#0" sampledSeconds="134.03" traveltime="9.03" overlapTraveltime="9.59" density="1.44" laneDensity="1.44" occupancy="1.15" waitingTime="0.00" timeLoss="22.62" speed="13.69" speedRelative="0.82" departed="0" arrived="0" entered="14" left="14" laneChangedFrom="0" laneChangedTo="0"/>
        <edge id="-148113999#1" sampledSeconds="29.87" traveltime="1.10" overlapTraveltime="2.22" density="5.33" laneDensity="5.33" occupancy="2.08" waitingTime="0.00" timeLoss="16.41" speed="7.44" speedRelative="0.45" departed="0" arrived="0" entered="14" left="14" laneChangedFrom="0" laneChangedTo="0"/>
        <edge id="-148113999#2" sampledSeconds="12.00" traveltime="6.05" overlapTraveltime="6.46" density="0.33" laneDensity="0.33" occupancy="0.15" waitingTime="0.00" timeLoss="5.82" speed="8.27" speedRelative="0.50" departed="1" arrived="1" entered="1" left="1" laneChangedFrom="0" laneChangedTo="0"/>
        <edge id="-151679580#0" sampledSeconds="0.00" departed="0" arrived="0" entered="0" left="0" laneChangedFrom="0" laneChangedTo="0"/>
        <edge id="-151679580#1" sampledSeconds="0.00" departed="0" arrived="0" entered="0" left="0" laneChangedFrom="0" laneChangedTo="0"/>
        <edge id="-151679581#0" sampledSeconds="0.00" departed="0" arrived="0" entered="0" left="0" laneChangedFrom="0" laneChangedTo="0"/>
        <edge id="-151679581#1" sampledSeconds="0.00" departed="0" arrived="0" entered="0" left="0" laneChangedFrom="0" laneChangedTo="0"/>
        <edge id="-151679581#2" sampledSeconds="0.00" departed="0" arrived="0" entered="0" left="0" laneChangedFrom="0" laneChangedTo="0"/>
        <edge id="-151679581#3" sampledSeconds="0.00" departed="0" arrived="0" entered="0" left="0" laneChangedFrom="0" laneChangedTo="0"/>
        <edge id="-152797023" sampledSeconds="0.00" departed="0" arrived="0" entered="0" left="0" laneChangedFrom="0" laneChangedTo="0"/>
        <edge id="-152797024#0" sampledSeconds="0.00" departed="0" arrived="0" entered="0" left="0" laneChangedFrom="0" laneChangedTo="0"/>
        <edge id="-152797024#1" sampledSeconds="0.00" departed="0" arrived="0" entered="0" left="0" laneChangedFrom="0" laneChangedTo="0"/>
        <edge id="-152797025#0" sampledSeconds="0.00" departed="0" arrived="0" entered="0" left="0" laneChangedFrom="0" laneChangedTo="0"/>
        <edge id="-156591687" sampledSeconds="0.00" departed="0" arrived="0" entered="0" left="0" laneChangedFrom="0" laneChangedTo="0"/>
        <edge id="-158166377#0" sampledSeconds="0.00" departed="0" arrived="0" entered="0" left="0" laneChangedFrom="0" laneChangedTo="0"/>
        <edge id="-158166377#1" sampledSeconds="0.00" departed="0" arrived="0" entered="0" left="0" laneChangedFrom="0" laneChangedTo="0"/>
        <edge id="-158166379#0" sampledSeconds="0.00" departed="0" arrived="0" entered="0" left="0" laneChangedFrom="0" laneChangedTo="0"/>
        <edge id="-158166379#1" sampledSeconds="0.00" departed="0" arrived="0" entered="0" left="0" laneChangedFrom="0" laneChangedTo="0"/>
        <edge id="-158167051" sampledSeconds="0.00" departed="0" arrived="0" entered="0" left="0" laneChangedFrom="0" laneChangedTo="0"/>
        <edge id="-158649582" sampledSeconds="0.00" departed="0" arrived="0" entered="0" left="0" laneChangedFrom="0" laneChangedTo="0"/>
        <edge id="-158649583#0" sampledSeconds="0.00" departed="0" arrived="0" entered="0" left="0" laneChangedFrom="0" laneChangedTo="0"/>
        <edge id="-158649583#1" sampledSeconds="0.00" departed="0" arrived="0" entered="0" left="0" laneChangedFrom="0" laneChangedTo="0"/>
        <edge id="-160936867#0" sampledSeconds="0.00" departed="0" arrived="0" entered="0" left="0" laneChangedFrom="0" laneChangedTo="0"/>
        <edge id="-160936867#1" sampledSeconds="0.00" departed="0" arrived="0" entered="0" left="0" laneChangedFrom="0" laneChangedTo="0"/>
        <edge id="-161446376" sampledSeconds="0.00" departed="0" arrived="0" entered="0" left="0" laneChangedFrom="0" laneChangedTo="0"/>
        <edge id="-164568381#0" sampledSeconds="0.00" departed="0" arrived="0" entered="0" left="0" laneChangedFrom="0" laneChangedTo="0"/>
        <edge id="-164568381#1" sampledSeconds="0.00" departed="0" arrived="0" entered="0" left="0" laneChangedFrom="0" laneChangedTo="0"/>
        <edge id="-164568382#0" sampledSeconds="0.00" departed="0" arrived="0" entered="0" left="0" laneChangedFrom="0" laneChangedTo="0"/>
        <edge id="-164568382#1" sampledSeconds="0.00" departed="0" arrived="0" entered="0" left="0" laneChangedFrom="0" laneChangedTo="0"/>
        <edge id="-164568382#2" sampledSeconds="0.00" departed="0" arrived="0" entered="0" left="0" laneChangedFrom="0" laneChangedTo="0"/>
        <edge id="-164568382#3" sampledSeconds="0.00" departed="0" arrived="0" entered="0" left="0" laneChangedFrom="0" laneChangedTo="0"/>
        <edge id="-164568382#4" sampledSeconds="0.00" departed="0" arrived="0" entered="0" left="0" laneChangedFrom="0" laneChangedTo="0"/>
        <edge id="-164568382#5" sampledSeconds="0.00" departed="0" arrived="0" entered="0" left="0" laneChangedFrom="0" laneChangedTo="0"/>
        <edge id="-164568382#6" sampledSeconds="0.00" departed="0" arrived="0" entered="0" left="0" laneChangedFrom="0" laneChangedTo="0"/>
        <edge id="-169765822#0" sampledSeconds="0.00" departed="0" arrived="0" entered="0" left="0" laneChangedFrom="0" laneChangedTo="0"/>