<?xml version="1.0" encoding="UTF-8"?>

<!-- generated on 2025-11-12 16:38:32 by Eclipse SUMO libsumo Version 1.24.0
<libsumoConfiguration xmlns:xsi="http://www.w3.org/2001/XMLSchema-instance" xsi:noNamespaceSchemaLocation="http://sumo.dlr.de/xsd/libsumoConfiguration.xsd">

    <input>
        <net-file value="C:\Users\kurganov\workspace\Smart_city\sumo_config\2025-09-20-14-52-18\osm.net.xml.gz"/>
        <route-files value="C:\Users\kurganov\workspace\Smart_city\sumo_config\2025-09-20-14-52-18\osm_pt.rou.xml,C:\Users\kurganov\workspace\Smart_city\sumo_config\2025-09-20-14-52-18\osm.bus.trips.xml,C:\Users\kurganov\workspace\Smart_city\sumo_config\2025-09-20-14-52-18\osm.passenger.trips.xml"/>
        <additional-files value="C:\Users\kurganov\workspace\Smart_city\sumo_config\2025-09-20-14-52-18\osm.poly.xml.gz,C:\Users\kurganov\workspace\Smart_city\sumo_config\2025-09-20-14-52-18\osm_stops.add.xml,C:\Users\kurganov\workspace\Smart_city\sumo_config\2025-09-20-14-52-18\output.add.xml"/>
    </input>

    <output>
        <tripinfo-output value="C:\Users\kurganov\workspace\Smart_city\sumo_config\2025-09-20-14-52-18\tripinfos.xml"/>
        <stop-output value="C:\Users\kurganov\workspace\Smart_city\sumo_config\2025-09-20-14-52-18\stopinfos.xml"/>
        <statistic-output value="C:\Users\kurganov\workspace\Smart_city\sumo_config\2025-09-20-14-52-18\stats.xml"/>
    </output>

    <processing>
        <ignore-route-errors value="true"/>
        <tls.actuated.jam-threshold value="30"/>
    </processing>

    <routing>
        <device.rerouting.adaptation-steps value="18"/>
        <device.rerouting.adaptation-interval value="10"/>
    </routing>

    <report>
        <verbose value="false"/>
        <no-warnings value="true"/>
        <duration-log.statistics value="true"/>
        <no-step-log value="true"/>
    </report>

    <random_number>
        <seed value="42"/>
    </random_number>

    <gui_only>
        <gui-settings-file value="C:\Users\kurganov\workspace\Smart_city\sumo_config\2025-09-20-14-52-18\osm.view.xml"/>
    </gui_only>

</libsumoConfiguration>
-->

<meandata xmlns:xsi="http://www.w3.org/2001/XMLSchema-instance" xsi:noNamespaceSchemaLocation="http://sumo.dlr.de/xsd/meandata_file.xsd">
    <interval begin="0.00" end="3600.00" id="wizard_example">
        <edge id="-103855914#1" sampledSeconds="161.46" traveltime="12.52" overlapTraveltime="14.13" density="0.27" laneDensity="0.27" occupancy="0.21" waitingTime="2.00" timeLoss="18.07" speed="12.19" speedRelative="0.88" departed="12" arrived="0" entered="0" left="12" laneChangedFrom="0" laneChangedTo="0"/>
        <edge id="-103907907" sampledSeconds="16.30" traveltime="0.58" overlapTraveltime="2.52" density="1.99" laneDensity="1.99" occupancy="0.34" waitingTime="0.00" timeLoss="6.54" speed="3.51" speedRelative="0.25" departed="0" arrived="3" entered="8" left="5" laneChangedFrom="0" laneChangedTo="0"/>
        <edge id="-103999075#0" sampledSeconds="0.00" departed="0" arrived="0" entered="0" left="0" laneChangedFrom="0" laneChangedTo="0"/>
        <edge id="-103999075#1" sampledSeconds="0.00" departed="0" arrived="0" entered="0" left="0" laneChangedFrom="0" laneChangedTo="0"/>
        <edge id="-103999078#0" sampledSeconds="71.12" traveltime="13.63" overlapTraveltime="14.43" density="0.12" laneDensity="0.12" occupancy="0.07" waitingTime="0.00" timeLoss="11.99" speed="11.91" speedRelative="0.86" departed="2" arrived="1" entered="3" left="4" laneChangedFrom="0" laneChangedTo="0"/>
        <edge id="-103999078#1" sampledSeconds="26.71" traveltime="6.06" overlapTraveltime="6.71" density="0.11" laneDensity="0.11" occupancy="0.08" waitingTime="0.00" timeLoss="6.28" speed="11.34" speedRelative="0.82" departed="0" arrived="1" entered="4" left="3" laneChangedFrom="0" laneChangedTo="0"/>
        <edge id="-103999078#2" sampledSeconds="47.64" traveltime="23.35" overlapTraveltime="24.52" density="0.06" laneDensity="0.06" occupancy="0.06" waitingTime="0.00" timeLoss="12.17" speed="10.14" speedRelative="0.73" departed="1" arrived="1" entered="1" left="1" laneChangedFrom="0" laneChangedTo="0"/>
        <edge id="-103999087#0" sampledSeconds="166.39" traveltime="22.56" overlapTraveltime="23.94" density="0.19" laneDensity="0.19" occupancy="0.14" waitingTime="4.00" timeLoss="32.60" speed="10.74" speedRelative="0.77" departed="1" arrived="1" entered="6" left="6" laneChangedFrom="0" laneChangedTo="0"/>
        <edge id="-103999087#1" sampledSeconds="82.42" traveltime="7.97" overlapTraveltime="9.46" density="0.31" laneDensity="0.31" occupancy="0.23" waitingTime="0.00" timeLoss="25.49" speed="8.79" speedRelative="0.63" departed="2" arrived="2" entered="7" left="7" laneChangedFrom="0" laneChangedTo="0"/>
        <edge id="-103999087#2" sampledSeconds="31.73" traveltime="2.40" overlapTraveltime="3.14" density="0.38" laneDensity="0.38" occupancy="0.23" waitingTime="0.00" timeLoss="8.81" speed="9.80" speedRelative="0.71" departed="2" arrived="4" entered="9" left="7" laneChangedFrom="0" laneChangedTo="0"/>
        <edge id="-103999087#3" sampledSeconds="70.18" traveltime="6.57" overlapTraveltime="7.06" density="0.25" laneDensity="0.25" occupancy="0.15" waitingTime="0.00" timeLoss="7.18" speed="12.11" speedRelative="0.87" departed="1" arrived="1" entered="9" left="9" laneChangedFrom="0" laneChangedTo="0"/>
        <edge id="-103999087#4" sampledSeconds="39.18" traveltime="3.74" overlapTraveltime="4.39" density="0.39" laneDensity="0.39" occupancy="0.20" waitingTime="0.00" timeLoss="16.22" speed="7.92" speedRelative="0.57" departed="0" arrived="0" entered="9" left="9" laneChangedFrom="0" laneChangedTo="0"/>
        <edge id="-103999104#0" sampledSeconds="308.69" traveltime="21.30" overlapTraveltime="22.16" density="0.34" laneDensity="0.34" occupancy="0.21" waitingTime="0.00" timeLoss="36.38" speed="11.57" speedRelative="0.83" departed="3" arrived="2" entered="11" left="12" laneChangedFrom="0" laneChangedTo="0"/>
        <edge id="-103999104#1" sampledSeconds="77.65" traveltime="6.59" overlapTraveltime="7.29" density="0.30" laneDensity="0.30" occupancy="0.19" waitingTime="0.00" timeLoss="15.57" speed="10.79" speedRelative="0.78" departed="2" arrived="3" entered="9" left="8" laneChangedFrom="0" laneChangedTo="0"/>
        <edge id="-103999104#2" sampledSeconds="23.38" traveltime="1.95" overlapTraveltime="2.44" density="0.34" laneDensity="0.34" occupancy="0.15" waitingTime="0.00" timeLoss="6.46" speed="10.10" speedRelative="0.73" departed="2" arrived="1" entered="8" left="9" laneChangedFrom="0" laneChangedTo="0"/>
        <edge id="-103999104#3" sampledSeconds="61.96" traveltime="6.45" overlapTraveltime="6.90" density="0.21" laneDensity="0.21" occupancy="0.11" waitingTime="0.00" timeLoss="3.73" speed="12.84" speedRelative="0.92" departed="0" arrived="1" entered="9" left="8" laneChangedFrom="0" laneChangedTo="0"/>
        <edge id="-103999104#4" sampledSeconds="44.14" traveltime="4.04" overlapTraveltime="4.56" density="0.41" laneDensity="0.41" occupancy="0.19" waitingTime="0.00" timeLoss="18.47" speed="7.89" speedRelative="0.57" departed="2" arrived="1" entered="8" left="9" laneChangedFrom="0" laneChangedTo="0"/>
        <edge id="-103999107#0" sampledSeconds="191.16" traveltime="22.59" overlapTraveltime="24.30" density="0.21" laneDensity="0.21" occupancy="0.16" waitingTime="9.00" timeLoss="48.08" speed="10.52" speedRelative="0.76" departed="3" arrived="3" entered="5" left="5" laneChangedFrom="0" laneChangedTo="0"/>
        <edge id="-103999107#1" sampledSeconds="45.41" traveltime="22.67" overlapTraveltime="23.36" density="0.05" laneDensity="0.05" occupancy="0.05" waitingTime="0.00" timeLoss="9.10" speed="10.37" speedRelative="0.75" departed="1" arrived="1" entered="1" left="1" laneChangedFrom="0" laneChangedTo="0"/>
        <edge id="-104071721#0" sampledSeconds="0.00" departed="0" arrived="0" entered="0" left="0" laneChangedFrom="0" laneChangedTo="0"/>
        <edge id="-104071721#1" sampledSeconds="0.00" departed="0" arrived="0" entered="0" left="0" laneChangedFrom="0" laneChangedTo="0"/>
        <edge id="-104071721#2" sampledSeconds="0.00" departed="0" arrived="0" entered="0" left="0" laneChangedFrom="0" laneChangedTo="0"/>
        <edge id="-104071734#0" sampledSeconds="0.00" departed="0" arrived="0" entered="0" left="0" laneChangedFrom="0" laneChangedTo="0"/>
        <edge id="-104500199" sampledSeconds="0.00" departed="0" arrived="0" entered="0" left="0" laneChangedFrom="0" laneChangedTo="0"/>
        <edge id="-1052526173#0" sampledSeconds="0.00" departed="0" arrived="0" entered="0" left="0" laneChangedFrom="0" laneChangedTo="0"/>
        <edge id="-1052526173#1" sampledSeconds="0.00" departed="0" arrived="0" entered="0" left="0" laneChangedFrom="0" laneChangedTo="0"/>
        <edge id="-1052526173#2" sampledSeconds="0.00" departed="0" arrived="0" entered="0" left="0" laneChangedFrom="0" laneChangedTo="0"/>
        <edge id="-1055495280" sampledSeconds="0.00" departed="0" arrived="0" entered="0" left="0" laneChangedFrom="0" laneChangedTo="0"/>
        <edge id="-105551742#0" sampledSeconds="0.00" departed="0" arrived="0" entered="0" left="0" laneChangedFrom="0" laneChangedTo="0"/>
        <edge id="-105551742#1" sampledSeconds="0.00" departed="0" arrived="0" entered="0" left="0" laneChangedFrom="0" laneChangedTo="0"/>
        <edge id="-105551742#2" sampledSeconds="0.00" departed="0" arrived="0" entered="0" left="0" laneChangedFrom="0" laneChangedTo="0"/>
        <edge id="-105551742#3" sampledSeconds="0.00" departed="0" arrived="0" entered="0" left="0" laneChangedFrom="0" laneChangedTo="0"/>
        <edge id="-1064346092" sampledSeconds="0.00" departed="0" arrived="0" entered="0" left="0" laneChangedFrom="0" laneChangedTo="0"/>
        <edge id="-106993840" sampledSeconds="0.00" departed="0" arrived="0" entered="0" left="0" laneChangedFrom="0" laneChangedTo="0"/>
        <edge id="-108126733" sampledSeconds="0.00" departed="0" arrived="0" entered="0" left="0" laneChangedFrom="0" laneChangedTo="0"/>
        <edge id="-108126734" sampledSeconds="0.00" departed="0" arrived="0" entered="0" left="0" laneChangedFrom="0" laneChangedTo="0"/>
        <edge id="-108126735#0" sampledSeconds="0.00" departed="0" arrived="0" entered="0" left="0" laneChangedFrom="0" laneChangedTo="0"/>
        <edge id="-108126787#0" sampledSeconds="0.00" departed="0" arrived="0" entered="0" left="0" laneChangedFrom="0" laneChangedTo="0"/>
        <edge id="-108126787#1" sampledSeconds="0.00" departed="0" arrived="0" entered="0" left="0" laneChangedFrom="0" laneChangedTo="0"/>
        <edge id="-108126787#2" sampledSeconds="0.00" departed="0" arrived="0" entered="0" left="0" laneChangedFrom="0" laneChangedTo="0"/>
        <edge id="-108126787#3" sampledSeconds="0.00" departed="0" arrived="0" entered="0" left="0" laneChangedFrom="0" laneChangedTo="0"/>
        <edge id="-108151968" sampledSeconds="0.00" departed="0" arrived="0" entered="0" left="0" laneChangedFrom="0" laneChangedTo="0"/>
        <edge id="-108151971#0" sampledSeconds="0.00" departed="0" arrived="0" entered="0" left="0" laneChangedFrom="0" laneChangedTo="0"/>
        <edge id="-108151971#1" sampledSeconds="0.00" departed="0" arrived="0" entered="0" left="0" laneChangedFrom="0" laneChangedTo="0"/>
        <edge id="-108151974" sampledSeconds="0.00" departed="0" arrived="0" entered="0" left="0" laneChangedFrom="0" laneChangedTo="0"/>
        <edge id="-108151976#0" sampledSeconds="0.00" departed="0" arrived="0" entered="0" left="0" laneChangedFrom="0" laneChangedTo="0"/>
        <edge id="-108151976#1" sampledSeconds="0.00" departed="0" arrived="0" entered="0" left="0" laneChangedFrom="0" laneChangedTo="0"/>
        <edge id="-108151976#2" sampledSeconds="0.00" departed="0" arrived="0" entered="0" left="0" laneChangedFrom="0" laneChangedTo="0"/>
        <edge id="-108151976#3" sampledSeconds="0.00" departed="0" arrived="0" entered="0" left="0" laneChangedFrom="0" laneChangedTo="0"/>
        <edge id="-108151976#4" sampledSeconds="0.00" departed="0" arrived="0" entered="0" left="0" laneChangedFrom="0" laneChangedTo="0"/>
        <edge id="-109830590#0" sampledSeconds="8.00" traveltime="8.90" overlapTraveltime="9.80" density="0.05" laneDensity="0.05" occupancy="0.02" waitingTime="0.00" timeLoss="1.65" speed="5.00" speedRelative="0.90" departed="1" arrived="1" entered="0" left="0" laneChangedFrom="0" laneChangedTo="0"/>
        <edge id="-109830590#1" sampledSeconds="0.00" departed="0" arrived="0" entered="0" left="0" laneChangedFrom="0" laneChangedTo="0"/>
        <edge id="-109830590#2" sampledSeconds="0.00" departed="0" arrived="0" entered="0" left="0" laneChangedFrom="0" laneChangedTo="0"/>
        <edge id="-109830590#3" sampledSeconds="0.00" departed="0" arrived="0" entered="0" left="0" laneChangedFrom="0" laneChangedTo="0"/>
        <edge id="-1099310698" sampledSeconds="262.12" traveltime="12.04" overlapTraveltime="12.59" density="0.58" laneDensity="0.58" occupancy="0.38" waitingTime="0.00" timeLoss="64.97" speed="10.53" speedRelative="0.76" departed="2" arrived="4" entered="19" left="17" laneChangedFrom="0" laneChangedTo="0"/>
        <edge id="-110742921" sampledSeconds="0.00" departed="0" arrived="0" entered="0" left="0" laneChangedFrom="0" laneChangedTo="0"/>
        <edge id="-110742922#0" sampledSeconds="0.00" departed="0" arrived="0" entered="0" left="0" laneChangedFrom="0" laneChangedTo="0"/>
        <edge id="-110742922#1" sampledSeconds="0.00" departed="0" arrived="0" entered="0" left="0" laneChangedFrom="0" laneChangedTo="0"/>
        <edge id="-110742922#2" sampledSeconds="0.00" departed="0" arrived="0" entered="0" left="0" laneChangedFrom="0" laneChangedTo="0"/>
        <edge id="-111793047" sampledSeconds="0.00" departed="0" arrived="0" entered="0" left="0" laneChangedFrom="0" laneChangedTo="0"/>
        <edge id="-114835839#0" sampledSeconds="121.07" traveltime="11.81" overlapTraveltime="12.56" density="0.24" laneDensity="0.24" occupancy="0.21" waitingTime="0.00" timeLoss="18.23" speed="11.89" speedRelative="0.86" departed="0" arrived="10" entered="10" left="0" laneChangedFrom="0" laneChangedTo="0"/>
        <edge id="-114835839#1" sampledSeconds="254.33" traveltime="35.50" overlapTraveltime="36.44" density="0.15" laneDensity="0.15" occupancy="0.09" waitingTime="0.00" timeLoss="26.16" speed="12.84" speedRelative="0.92" departed="1" arrived="1" entered="6" left="6" laneChangedFrom="0" laneChangedTo="0"/>
        <edge id="-114835856" sampledSeconds="268.76" traveltime="43.41" overlapTraveltime="45.24" density="0.16" laneDensity="0.16" occupancy="0.15" waitingTime="13.00" timeLoss="49.17" speed="10.49" speedRelative="0.76" departed="1" arrived="2" entered="5" left="4" laneChangedFrom="0" laneChangedTo="0"/>
        <edge id="-1148461884#0" sampledSeconds="841.59" traveltime="10.05" overlapTraveltime="11.56" density="2.67" laneDensity="2.67" occupancy="1.74" waitingTime="110.00" timeLoss="320.52" speed="8.18" speedRelative="0.59" departed="4" arrived="2" entered="70" left="71" laneChangedFrom="0" laneChangedTo="0"/>
        <edge id="-1148461884#1" sampledSeconds="557.45" traveltime="6.80" overlapTraveltime="7.36" density="1.76" laneDensity="1.76" occupancy="1.09" waitingTime="0.00" timeLoss="34.83" speed="12.87" speedRelative="0.93" departed="2" arrived="4" entered="74" left="72" laneChangedFrom="0" laneChangedTo="0"/>
        <edge id="-1148461884#3" sampledSeconds="775.23" traveltime="7.90" overlapTraveltime="8.69" density="2.56" laneDensity="2.56" occupancy="1.65" waitingTime="4.00" timeLoss="171.10" speed="10.52" speedRelative="0.76" departed="6" arrived="1" entered="84" left="89" laneChangedFrom="0" laneChangedTo="0"/>
        <edge id="-1155202126#1" sampledSeconds="4808.10" traveltime="51.45" overlapTraveltime="52.78" density="9.20" laneDensity="4.60" occupancy="3.03" waitingTime="3333.00" timeLoss="3968.73" speed="2.88" speedRelative="0.17" departed="1" arrived="3" entered="90" left="88" laneChangedFrom="0" laneChangedTo="0"/>
        <edge id="-1173087136#0" sampledSeconds="0.00" departed="0" arrived="0" entered="0" left="0" laneChangedFrom="0" laneChangedTo="0"/>
        <edge id="-1173087136#1" sampledSeconds="0.00" departed="0" arrived="0" entered="0" left="0" laneChangedFrom="0" laneChangedTo="0"/>
        <edge id="-1182981224" sampledSeconds="0.00" departed="0" arrived="0" entered="0" left="0" laneChangedFrom="0" laneChangedTo="0"/>
        <edge id="-118382014" sampledSeconds="0.00" departed="0" arrived="0" entered="0" left="0" laneChangedFrom="0" laneChangedTo="0"/>
        <edge id="-118382015#0" sampledSeconds="0.00" departed="0" arrived="0" entered="0" left="0" laneChangedFrom="0" laneChangedTo="0"/>
        <edge id="-118382015#1" sampledSeconds="0.00" departed="0" arrived="0" entered="0" left="0" laneChangedFrom="0" laneChangedTo="0"/>
        <edge id="-1190628389#0" sampledSeconds="0.00" departed="0" arrived="0" entered="0" left="0" laneChangedFrom="0" laneChangedTo="0"/>
        <edge id="-1190628389#1" sampledSeconds="0.00" departed="0" arrived="0" entered="0" left="0" laneChangedFrom="0" laneChangedTo="0"/>
        <edge id="-1190628393" sampledSeconds="411.29" traveltime="5.21" overlapTraveltime="5.88" density="1.43" laneDensity="1.43" occupancy="0.98" waitingTime="0.00" timeLoss="34.26" speed="14.94" speedRelative="0.90" departed="0" arrived="2" entered="70" left="68" laneChangedFrom="0" laneChangedTo="0"/>
        <edge id="-1196051035" sampledSeconds="0.00" departed="0" arrived="0" entered="0" left="0" laneChangedFrom="0" laneChangedTo="0"/>
        <edge id="-1198901675" sampledSeconds="0.00" departed="0" arrived="0" entered="0" left="0" laneChangedFrom="0" laneChangedTo="0"/>
        <edge id="-1198901676" sampledSeconds="0.00" departed="0" arrived="0" entered="0" left="0" laneChangedFrom="0" laneChangedTo="0"/>
        <edge id="-1198901677" sampledSeconds="0.00" departed="0" arrived="0" entered="0" left="0" laneChangedFrom="0" laneChangedTo="0"/>
        <edge id="-1198901678#1" sampledSeconds="0.00" departed="0" arrived="0" entered="0" left="0" laneChangedFrom="0" laneChangedTo="0"/>
        <edge id="-1198925406" sampledSeconds="0.00" departed="0" arrived="0" entered="0" left="0" laneChangedFrom="0" laneChangedTo="0"/>
        <edge id="-1198925407" sampledSeconds="0.00" departed="0" arrived="0" entered="0" left="0" laneChangedFrom="0" laneChangedTo="0"/>
        <edge id="-1214517537" sampledSeconds="0.00" departed="0" arrived="0" entered="0" left="0" laneChangedFrom="0" laneChangedTo="0"/>
        <edge id="-1214517538" sampledSeconds="0.00" departed="0" arrived="0" entered="0" left="0" laneChangedFrom="0" laneChangedTo="0"/>
        <edge id="-126329647" sampledSeconds="0.00" departed="0" arrived="0" entered="0" left="0" laneChangedFrom="0" laneChangedTo="0"/>
        <edge id="-126329649#0" sampledSeconds="0.00" departed="0" arrived="0" entered="0" left="0" laneChangedFrom="0" laneChangedTo="0"/>
        <edge id="-126329649#1" sampledSeconds="0.00" departed="0" arrived="0" entered="0" left="0" laneChangedFrom="0" laneChangedTo="0"/>
        <edge id="-1266528613#0" sampledSeconds="0.00" departed="0" arrived="0" entered="0" left="0" laneChangedFrom="0" laneChangedTo="0"/>
        <edge id="-1266528613#1" sampledSeconds="0.00" departed="0" arrived="0" entered="0" left="0" laneChangedFrom="0" laneChangedTo="0"/>
        <edge id="-127323466#0" sampledSeconds="0.00" departed="0" arrived="0" entered="0" left="0" laneChangedFrom="0" laneChangedTo="0"/>
        <edge id="-127323466#1" sampledSeconds="0.00" departed="0" arrived="0" entered="0" left="0" laneChangedFrom="0" laneChangedTo="0"/>
        <edge id="-127325741" sampledSeconds="0.00" departed="0" arrived="0" entered="0" left="0" laneChangedFrom="0" laneChangedTo="0"/>
        <edge id="-1293820838#0" sampledSeconds="0.00" departed="0" arrived="0" entered="0" left="0" laneChangedFrom="0" laneChangedTo="0"/>
        <edge id="-1293820838#1" sampledSeconds="0.00" departed="0" arrived="0" entered="0" left="0" laneChangedFrom="0" laneChangedTo="0"/>
        <edge id="-130847495#0" sampledSeconds="0.00" departed="0" arrived="0" entered="0" left="0" laneChangedFrom="0" laneChangedTo="0"/>
        <edge id="-130847496#0" sampledSeconds="0.00" departed="0" arrived="0" entered="0" left="0" laneChangedFrom="0" laneChangedTo="0"/>
        <edge id="-130847497" sampledSeconds="0.00" departed="0" arrived="0" entered="0" left="0" laneChangedFrom="0" laneChangedTo="0"/>
        <edge id="-130847498" sampledSeconds="0.00" departed="0" arrived="0" entered="0" left="0" laneChangedFrom="0" laneChangedTo="0"/>
        <edge id="-130848969" sampledSeconds="0.00" departed="0" arrived="0" entered="0" left="0" laneChangedFrom="0" laneChangedTo="0"/>
        <edge id="-133352655" sampledSeconds="0.00" departed="0" arrived="0" entered="0" left="0" laneChangedFrom="0" laneChangedTo="0"/>
        <edge id="-135082465#0" sampledSeconds="279.21" traveltime="2.58" overlapTraveltime="3.02" density="2.04" laneDensity="1.02" occupancy="0.59" waitingTime="0.00" timeLoss="28.12" speed="14.90" speedRelative="0.89" departed="5" arrived="3" entered="88" left="90" laneChangedFrom="0" laneChangedTo="0"/>
        <edge id="-135082465#1" sampledSeconds="181.27" traveltime="1.54" overlapTraveltime="2.00" density="2.15" laneDensity="1.07" occupancy="0.58" waitingTime="0.00" timeLoss="13.63" speed="15.34" speedRelative="0.92" departed="2" arrived="3" entered="90" left="89" laneChangedFrom="4" laneChangedTo="4"/>
        <edge id="-135082465#2" sampledSeconds="481.94" traveltime="4.85" overlapTraveltime="5.32" density="2.02" laneDensity="1.01" occupancy="0.64" waitingTime="0.00" timeLoss="79.27" speed="13.83" speedRelative="0.83" departed="1" arrived="1" entered="90" left="90" laneChangedFrom="19" laneChangedTo="19"/>
        <edge id="-1370340549" sampledSeconds="0.00" departed="0" arrived="0" entered="0" left="0" laneChangedFrom="0" laneChangedTo="0"/>
        <edge id="-1384455436#0" sampledSeconds="0.00" departed="0" arrived="0" entered="0" left="0" laneChangedFrom="0" laneChangedTo="0"/>
        <edge id="-1384455436#1" sampledSeconds="0.00" departed="0" arrived="0" entered="0" left="0" laneChangedFrom="0" laneChangedTo="0"/>
        <edge id="-1384455436#2" sampledSeconds="0.00" departed="0" arrived="0" entered="0" left="0" laneChangedFrom="0" laneChangedTo="0"/>
        <edge id="-1384455436#3" sampledSeconds="0.00" departed="0" arrived="0" entered="0" left="0" laneChangedFrom="0" laneChangedTo="0"/>
        <edge id="-1384455436#4" sampledSeconds="0.00" departed="0" arrived="0" entered="0" left="0" laneChangedFrom="0" laneChangedTo="0"/>
        <edge id="-138945312" sampledSeconds="0.00" departed="0" arrived="0" entered="0" left="0" laneChangedFrom="0" laneChangedTo="0"/>
        <edge id="-1390923580#0" sampledSeconds="0.00" departed="0" arrived="0" entered="0" left="0" laneChangedFrom="0" laneChangedTo="0"/>
        <edge id="-1390923580#1" sampledSeconds="0.00" departed="0" arrived="0" entered="0" left="0" laneChangedFrom="0" laneChangedTo="0"/>
        <edge id="-1390923580#2" sampledSeconds="0.00" departed="0" arrived="0" entered="0" left="0" laneChangedFrom="0" laneChangedTo="0"/>
        <edge id="-1390923581" sampledSeconds="0.00" departed="0" arrived="0" entered="0" left="0" laneChangedFrom="0" laneChangedTo="0"/>
        <edge id="-1395653504" sampledSeconds="0.00" departed="0" arrived="0" entered="0" left="0" laneChangedFrom="0" laneChangedTo="0"/>
        <edge id="-143229322" sampledSeconds="0.00" departed="0" arrived="0" entered="0" left="0" laneChangedFrom="0" laneChangedTo="0"/>
        <edge id="-143229324" sampledSeconds="0.00" departed="0" arrived="0" entered="0" left="0" laneChangedFrom="0" laneChangedTo="0"/>
        <edge id="-146483523" sampledSeconds="0.00" departed="0" arrived="0" entered="0" left="0" laneChangedFrom="0" laneChangedTo="0"/>
        <edge id="-146483524#0" sampledSeconds="0.00" departed="0" arrived="0" entered="0" left="0" laneChangedFrom="0" laneChangedTo="0"/>
        <edge id="-146483524#1" sampledSeconds="0.00" departed="0" arrived="0" entered="0" left="0" laneChangedFrom="0" laneChangedTo="0"/>
        <edge id="-146483524#2" sampledSeconds="0.00" departed="0" arrived="0" entered="0" left="0" laneChangedFrom="0" laneChangedTo="0"/>
        <edge id="-146483524#3" sampledSeconds="0.00" departed="0" arrived="0" entered="0" left="0" laneChangedFrom="0" laneChangedTo="0"/>
        <edge id="-146483524#4" sampledSeconds="0.00" departed="0" arrived="0" entered="0" left="0" laneChangedFrom="0" laneChangedTo="0"/>
        <edge id="-148113999#0" sampledSeconds="737.92" traveltime="8.99" overlapTraveltime="9.49" density="1.67" laneDensity="1.67" occupancy="1.14" waitingTime="10.00" timeLoss="123.72" speed="13.69" speedRelative="0.82" departed="1" arrived="1" entered="77" left="77" laneChangedFrom="0" laneChangedTo="0"/>
        <edge id="-148113999#1" sampledSeconds="154.35" traveltime="1.10" overlapTraveltime="2.07" density="5.82" laneDensity="5.82" occupancy="2.08" waitingTime="0.00" timeLoss="85.22" speed="7.36" speedRelative="0.44" departed="0" arrived="1" entered="79" left="77" laneChangedFrom="0" laneChangedTo="0"/>
        <edge id="-148113999#2" sampledSeconds="27.06" traveltime="6.43" overlapTraveltime="7.10" density="0.16" laneDensity="0.16" occupancy="0.09" waitingTime="0.00" timeLoss="13.74" speed="7.84" speedRelative="0.47" departed="1" arrived="1" entered="3" left="3" laneChangedFrom="0" laneChangedTo="0"/>
        <edge id="-151679580#0" sampledSeconds="0.00" departed="0" arrived="0" entered="0" left="0" laneChangedFrom="0" laneChangedTo="0"/>
        <edge id="-151679580#1" sampledSeconds="0.00" departed="0" arrived="0" entered="0" left="0" laneChangedFrom="0" laneChangedTo="0"/>
        <edge id="-151679581#0" sampledSeconds="0.00" departed="0" arrived="0" entered="0" left="0" laneChangedFrom="0" laneChangedTo="0"/>
        <edge id="-151679581#1" sampledSeconds="0.00" departed="0" arrived="0" entered="0" left="0" laneChangedFrom="0" laneChangedTo="0"/>
        <edge id="-151679581#2" sampledSeconds="0.00" departed="0" arrived="0" entered="0" left="0" laneChangedFrom="0" laneChangedTo="0"/>
        <edge id="-151679581#3" sampledSeconds="0.00" departed="0" arrived="0" entered="0" left="0" laneChangedFrom="0" laneChangedTo="0"/>
        <edge id="-152797023" sampledSeconds="0.00" departed="0" arrived="0" entered="0" left="0" laneChangedFrom="0" laneChangedTo="0"/>
        <edge id="-152797024#0" sampledSeconds="0.00" departed="0" arrived="0" entered="0" left="0" laneChangedFrom="0" laneChangedTo="0"/>
        <edge id="-152797024#1" sampledSeconds="0.00" departed="0" arrived="0" entered="0" left="0" laneChangedFrom="0" laneChangedTo="0"/>
        <edge id="-152797025#0" sampledSeconds="0.00" departed="0" arrived="0" entered="0" left="0" laneChangedFrom="0" laneChangedTo="0"/>
        <edge id="-156591687" sampledSeconds="0.00" departed="0" arrived="0" entered="0" left="0" laneChangedFrom="0" laneChangedTo="0"/>
        <edge id="-158166377#0" sampledSeconds="0.00" departed="0" arrived="0" entered="0" left="0" laneChangedFrom="0" laneChangedTo="0"/>
        <edge id="-158166377#1" sampledSeconds="0.00" departed="0" arrived="0" entered="0" left="0" laneChangedFrom="0" laneChangedTo="0"/>
        <edge id="-158166379#0" sampledSeconds="0.00" departed="0" arrived="0" entered="0" left="0" laneChangedFrom="0" laneChangedTo="0"/>
        <edge id="-158166379#1" sampledSeconds="0.00" departed="0" arrived="0" entered="0" left="0" laneChangedFrom="0" laneChangedTo="0"/>
        <edge id="-158167051" sampledSeconds="0.00" departed="0" arrived="0" entered="0" left="0" laneChangedFrom="0" laneChangedTo="0"/>
        <edge id="-158649582" sampledSeconds="0.00" departed="0" arrived="0" entered="0" left="0" laneChangedFrom="0" laneChangedTo="0"/>
        <edge id="-158649583#0" sampledSeconds="0.00" departed="0" arrived="0" entered="0" left="0" laneChangedFrom="0" laneChangedTo="0"/>
        <edge id="-158649583#1" sampledSeconds="0.00" departed="0" arrived="0" entered="0" left="0" laneChangedFrom="0" laneChangedTo="0"/>
        <edge id="-160936867#0" sampledSeconds="0.00" departed="0" arrived="0" entered="0" left="0" laneChangedFrom="0" laneChangedTo="0"/>
        <edge id="-160936867#1" sampledSeconds="0.00" departed="0" arrived="0" entered="0" left="0" laneChangedFrom="0" laneChangedTo="0"/>
        <edge id="-161446376" sampledSeconds="0.00" departed="0" arrived="0" entered="0" left="0" laneChangedFrom="0" laneChangedTo="0"/>
        <edge id="-164568381#0" sampledSeconds="0.00" departed="0" arrived="0" entered="0" left="0" laneChangedFrom="0" laneChangedTo="0"/>
        <edge id="-164568381#1" sampledSeconds="0.00" departed="0" arrived="0" entered="0" left="0" laneChangedFrom="0" laneChangedTo="0"/>
        <edge id="-164568382#0" sampledSeconds="0.00" departed="0" arrived="0" entered="0" left="0" laneChangedFrom="0" laneChangedTo="0"/>
        <edge id="-164568382#1" sampledSeconds="0.00" departed="0" arrived="0" entered="0" left="0" laneChangedFrom="0" laneChangedTo="0"/>
        <edge id="-164568382#2" sampledSeconds="0.00" departed="0" arrived="0" entered="0" left="0" laneChangedFrom="0" laneChangedTo="0"/>
        <edge id="-164568382#3" sampledSeconds="0.00" departed="0" arrived="0" entered="0" left="0" laneChangedFrom="0" laneChangedTo="0"/>
        <edge id="-164568382#4" sampledSeconds="0.00" departed="0" arrived="0" entered="0" left="0" laneChangedFrom="0" laneChangedTo="0"/>
        <edge id="-164568382#5" sampledSeconds="0.00" departed="0" arrived="0" entered="0" left="0" laneChangedFrom="0" laneChangedTo="0"/>
        <edge id="-164568382#6" sampledSeconds="0.00" departed="0" arrived="0" entered="0" left="0" laneChangedFrom="0" laneChangedTo="0"/>