<?xml version="1.0" encoding="UTF-8"?>

<!-- generated on 2025-11-14 17:06:38 by Eclipse SUMO libsumo Version 1.24.0
<libsumoConfiguration xmlns:xsi="http://www.w3.org/2001/XMLSchema-instance" xsi:noNamespaceSchemaLocation="http://sumo.dlr.de/xsd/libsumoConfiguration.xsd">

    <input>
        <net-file value="C:\Users\kurganov\workspace\Smart_city\sumo_config\2025-09-20-14-52-18\osm.net.xml.gz"/>
        <route-files value="C:\Users\kurganov\workspace\Smart_city\sumo_config\2025-09-20-14-52-18\osm_pt.rou.xml,C:\Users\kurganov\workspace\Smart_city\sumo_config\2025-09-20-14-52-18\osm.bus.trips.xml,C:\Users\kurganov\workspace\Smart_city\sumo_config\2025-09-20-14-52-18\osm.passenger.trips.xml"/>
        <additional-files value="C:\Users\kurganov\workspace\Smart_city\sumo_config\2025-09-20-14-52-18\osm.poly.xml.gz,C:\Users\kurganov\workspace\Smart_city\sumo_config\2025-09-20-14-52-18\osm_stops.add.xml,C:\Users\kurganov\workspace\Smart_city\sumo_config\2025-09-20-14-52-18\output.add.xml"/>
    </input>

    <output>
        <tripinfo-output value="C:\Users\kurganov\workspace\Smart_city\sumo_config\2025-09-20-14-52-18\tripinfos.xml"/>
        <stop-output value="C:\Users\kurganov\workspace\Smart_city\sumo_config\2025-09-20-14-52-18\stopinfos.xml"/>
        <statistic-output value="C:\Users\kurganov\workspace\Smart_city\sumo_config\2025-09-20-14-52-18\stats.xml"/>
    </output>

    <processing>
        <ignore-route-errors value="true"/>
        <tls.actuated.jam-threshold value="30"/>
    </processing>

    <routing>
        <device.rerouting.adaptation-steps value="18"/>
        <device.rerouting.adaptation-interval value="10"/>
    </routing>

    <report>
        <verbose value="false"/>
        <no-warnings value="true"/>
        <duration-log.statistics value="true"/>
        <no-step-log value="true"/>
    </report>

    <random_number>
        <seed value="42"/>
    </random_number>

    <gui_only>
        <gui-settings-file value="C:\Users\kurganov\workspace\Smart_city\sumo_config\2025-09-20-14-52-18\osm.view.xml"/>
    </gui_only>

</libsumoConfiguration>
-->

<tripinfos xmlns:xsi="http://www.w3.org/2001/XMLSchema-instance" xsi:noNamespaceSchemaLocation="http://sumo.dlr.de/xsd/tripinfo_file.xsd">
    <tripinfo id="veh3" depart="8.00" departLane="188335311#2_1" departPos="5.10" departSpeed="0.00" departDelay="0.98" arrival="70.00" arrivalLane="188335301#2_0" arrivalPos="130.23" arrivalSpeed="14.08" duration="62.00" routeLength="699.42" waitingTime="0.00" waitingCount="0" stopTime="0.00" timeLoss="11.73" rerouteNo="1" devices="tripinfo_veh3 routing_veh3" vType="veh_passenger" speedFactor="0.88" vaporized=""/>
    <tripinfo id="veh19" depart="45.00" departLane="362223413_1" departPos="5.10" departSpeed="0.00" departDelay="0.56" arrival="103.00" arrivalLane="-289115589#5_0" arrivalPos="66.07" arrivalSpeed="16.78" duration="58.00" routeLength="764.76" waitingTime="0.00" waitingCount="0" stopTime="0.00" timeLoss="16.21" rerouteNo="1" devices="tripinfo_veh19 routing_veh19" vType="veh_passenger" speedFactor="1.24" vaporized=""/>
    <tripinfo id="veh23" depart="54.00" departLane="38725429_0" departPos="2.82" departSpeed="0.00" departDelay="0.20" arrival="128.00" arrivalLane="-188335312#11_0" arrivalPos="66.84" arrivalSpeed="15.21" duration="74.00" routeLength="808.15" waitingTime="2.00" waitingCount="1" stopTime="0.00" timeLoss="19.90" rerouteNo="1" devices="tripinfo_veh23 routing_veh23" vType="veh_passenger" speedFactor="1.12" vaporized=""/>
    <tripinfo id="veh10" depart="24.00" departLane="217725902_0" departPos="5.10" departSpeed="0.00" departDelay="0.61" arrival="133.00" arrivalLane="188335300#1_0" arrivalPos="51.01" arrivalSpeed="16.40" duration="109.00" routeLength="1255.81" waitingTime="0.00" waitingCount="0" stopTime="0.00" timeLoss="19.58" rerouteNo="1" devices="tripinfo_veh10 routing_veh10" vType="veh_passenger" speedFactor="1.00" vaporized=""/>
    <tripinfo id="veh7" depart="17.00" departLane="188130796#2_0" departPos="5.10" departSpeed="0.00" departDelay="0.63" arrival="139.00" arrivalLane="-38725423#2_0" arrivalPos="6.06" arrivalSpeed="8.73" duration="122.00" routeLength="1852.56" waitingTime="0.00" waitingCount="0" stopTime="0.00" timeLoss="20.18" rerouteNo="1" devices="tripinfo_veh7 routing_veh7" vType="veh_passenger" speedFactor="1.13" vaporized=""/>
    <tripinfo id="veh21" depart="50.00" departLane="450839100#0_0" departPos="5.10" departSpeed="0.00" departDelay="0.88" arrival="145.00" arrivalLane="103855914#0_0" arrivalPos="164.11" arrivalSpeed="11.71" duration="95.00" routeLength="964.89" waitingTime="0.00" waitingCount="0" stopTime="0.00" timeLoss="13.49" rerouteNo="1" devices="tripinfo_veh21 routing_veh21" vType="veh_passenger" speedFactor="0.87" vaporized=""/>
    <tripinfo id="veh27" depart="64.00" departLane="-351661494_0" departPos="5.10" departSpeed="0.00" departDelay="0.85" arrival="145.00" arrivalLane="188335299_0" arrivalPos="32.10" arrivalSpeed="12.07" duration="81.00" routeLength="925.62" waitingTime="0.00" waitingCount="0" stopTime="0.00" timeLoss="10.15" rerouteNo="1" devices="tripinfo_veh27 routing_veh27" vType="veh_passenger" speedFactor="0.91" vaporized=""/>
    <tripinfo id="veh0" depart="0.00" departLane="-188335311#3_0" departPos="5.10" departSpeed="0.00" departDelay="0.00" arrival="154.00" arrivalLane="349283316#2_0" arrivalPos="62.10" arrivalSpeed="15.03" duration="154.00" routeLength="1171.37" waitingTime="41.00" waitingCount="3" stopTime="0.00" timeLoss="62.29" rerouteNo="1" devices="tripinfo_veh0 routing_veh0" vType="veh_passenger" speedFactor="0.95" vaporized=""/>
    <tripinfo id="veh36" depart="85.00" departLane="-103855914#1_0" departPos="5.10" departSpeed="14.75" departDelay="0.80" arrival="164.00" arrivalLane="42685730#0_0" arrivalPos="58.18" arrivalSpeed="14.01" duration="79.00" routeLength="1005.47" waitingTime="0.00" waitingCount="0" stopTime="0.00" timeLoss="14.33" rerouteNo="1" devices="tripinfo_veh36 routing_veh36" vType="veh_passenger" speedFactor="1.06" vaporized=""/>
    <tripinfo id="veh47" depart="110.00" departLane="1190628394#1_0" departPos="5.10" departSpeed="0.00" departDelay="0.07" arrival="164.00" arrivalLane="104071737#1_1" arrivalPos="67.63" arrivalSpeed="16.86" duration="54.00" routeLength="674.78" waitingTime="0.00" waitingCount="0" stopTime="0.00" timeLoss="12.74" rerouteNo="1" devices="tripinfo_veh47 routing_veh47" vType="veh_passenger" speedFactor="1.03" vaporized=""/>
    <tripinfo id="veh4" depart="10.00" departLane="-1148461884#3_0" departPos="5.10" departSpeed="0.00" departDelay="0.64" arrival="171.00" arrivalLane="135082465#1_0" arrivalPos="23.43" arrivalSpeed="14.92" duration="161.00" routeLength="1500.34" waitingTime="44.00" waitingCount="1" stopTime="0.00" timeLoss="59.12" rerouteNo="1" devices="tripinfo_veh4 routing_veh4" vType="veh_passenger" speedFactor="0.93" vaporized=""/>
    <tripinfo id="bus1" depart="7.00" departLane="-52882119#0_0" departPos="0.40" departSpeed="0.00" departDelay="0.45" arrival="174.00" arrivalLane="-38725427_0" arrivalPos="4.69" arrivalSpeed="8.18" duration="167.00" routeLength="1994.24" waitingTime="2.00" waitingCount="1" stopTime="0.00" timeLoss="36.42" rerouteNo="1" devices="tripinfo_bus1 routing_bus1" vType="bus_bus" speedFactor="1.00" vaporized=""/>
    <tripinfo id="veh31" depart="73.00" departLane="-289115589#1_0" departPos="5.10" departSpeed="0.00" departDelay="0.49" arrival="176.00" arrivalLane="-357520680#1_0" arrivalPos="3.38" arrivalSpeed="8.46" duration="103.00" routeLength="972.93" waitingTime="28.00" waitingCount="2" stopTime="0.00" timeLoss="47.39" rerouteNo="1" devices="tripinfo_veh31 routing_veh31" vType="veh_passenger" speedFactor="1.08" vaporized=""/>
    <tripinfo id="veh35" depart="82.00" departLane="188335305#0_3" departPos="5.10" departSpeed="0.00" departDelay="0.14" arrival="176.00" arrivalLane="-188335310#1_0" arrivalPos="67.01" arrivalSpeed="18.73" duration="94.00" routeLength="1042.70" waitingTime="20.00" waitingCount="2" stopTime="0.00" timeLoss="38.88" rerouteNo="1" devices="tripinfo_veh35 routing_veh35" vType="veh_passenger" speedFactor="1.15" vaporized=""/>
    <tripinfo id="bus4" depart="27.00" departLane="164792588#4_0" departPos="12.10" departSpeed="0.00" departDelay="0.80" arrival="201.00" arrivalLane="-1148461884#0_0" arrivalPos="87.40" arrivalSpeed="13.77" duration="174.00" routeLength="2248.14" waitingTime="2.00" waitingCount="1" stopTime="0.00" timeLoss="32.44" rerouteNo="1" devices="tripinfo_bus4 routing_bus4" vType="bus_bus" speedFactor="1.00" vaporized=""/>
    <tripinfo id="veh49" depart="115.00" departLane="79091254_0" departPos="5.10" departSpeed="0.00" departDelay="0.39" arrival="205.00" arrivalLane="347995179#0_0" arrivalPos="65.12" arrivalSpeed="16.69" duration="90.00" routeLength="986.29" waitingTime="2.00" waitingCount="1" stopTime="0.00" timeLoss="20.59" rerouteNo="1" devices="tripinfo_veh49 routing_veh49" vType="veh_passenger" speedFactor="1.04" vaporized=""/>
    <tripinfo id="bus3" depart="20.00" departLane="450040538_0" departPos="12.10" departSpeed="13.89" departDelay="0.35" arrival="208.00" arrivalLane="-197882479#4_0" arrivalPos="28.11" arrivalSpeed="10.66" duration="188.00" routeLength="2021.08" waitingTime="25.00" waitingCount="2" stopTime="0.00" timeLoss="60.78" rerouteNo="1" devices="tripinfo_bus3 routing_bus3" vType="bus_bus" speedFactor="1.00" vaporized=""/>
    <tripinfo id="veh22" depart="52.00" departLane="-38725441#1_0" departPos="5.10" departSpeed="0.00" departDelay="0.54" arrival="209.00" arrivalLane="38809001#3_0" arrivalPos="36.90" arrivalSpeed="16.27" duration="157.00" routeLength="1931.31" waitingTime="7.00" waitingCount="1" stopTime="0.00" timeLoss="29.10" rerouteNo="1" devices="tripinfo_veh22 routing_veh22" vType="veh_passenger" speedFactor="1.05" vaporized=""/>
    <tripinfo id="veh5" depart="12.00" departLane="1363549211_1" departPos="5.10" departSpeed="0.00" departDelay="0.31" arrival="215.00" arrivalLane="38809001#4_0" arrivalPos="38.23" arrivalSpeed="17.17" duration="203.00" routeLength="2548.65" waitingTime="28.00" waitingCount="2" stopTime="0.00" timeLoss="52.21" rerouteNo="1" devices="tripinfo_veh5 routing_veh5" vType="veh_passenger" speedFactor="1.08" vaporized=""/>
    <tripinfo id="bus6" depart="40.00" departLane="-1148461884#3_0" departPos="12.10" departSpeed="0.00" departDelay="0.71" arrival="216.00" arrivalLane="-38725422#0_0" arrivalPos="4.98" arrivalSpeed="9.79" duration="176.00" routeLength="1731.14" waitingTime="29.00" waitingCount="3" stopTime="0.00" timeLoss="66.45" rerouteNo="1" devices="tripinfo_bus6 routing_bus6" vType="bus_bus" speedFactor="1.00" vaporized=""/>
    <tripinfo id="veh28" depart="66.00" departLane="38725428_0" departPos="2.79" departSpeed="0.00" departDelay="0.51" arrival="221.00" arrivalLane="69585283#5_0" arrivalPos="37.68" arrivalSpeed="16.28" duration="155.00" routeLength="1690.28" waitingTime="0.00" waitingCount="0" stopTime="0.00" timeLoss="31.80" rerouteNo="1" devices="tripinfo_veh28 routing_veh28" vType="veh_passenger" speedFactor="1.00" vaporized=""/>
    <tripinfo id="veh52" depart="122.00" departLane="-192222453_0" departPos="0.20" departSpeed="0.00" departDelay="0.37" arrival="224.00" arrivalLane="-135082465#0_0" arrivalPos="38.04" arrivalSpeed="14.41" duration="102.00" routeLength="1098.06" waitingTime="10.00" waitingCount="1" stopTime="0.00" timeLoss="28.05" rerouteNo="1" devices="tripinfo_veh52 routing_veh52" vType="veh_passenger" speedFactor="0.91" vaporized=""/>
    <tripinfo id="bus12" depart="79.00" departLane="414841238#5_0" departPos="12.10" departSpeed="0.00" departDelay="0.41" arrival="226.00" arrivalLane="261565232#5_0" arrivalPos="21.62" arrivalSpeed="16.49" duration="147.00" routeLength="1504.42" waitingTime="34.00" waitingCount="1" stopTime="0.00" timeLoss="56.17" rerouteNo="1" devices="tripinfo_bus12 routing_bus12" vType="bus_bus" speedFactor="1.00" vaporized=""/>
    <tripinfo id="veh16" depart="38.00" departLane="43520373#0_0" departPos="5.10" departSpeed="15.67" departDelay="0.58" arrival="231.00" arrivalLane="188335312#11_0" arrivalPos="66.84" arrivalSpeed="15.26" duration="193.00" routeLength="2858.07" waitingTime="3.00" waitingCount="1" stopTime="0.00" timeLoss="30.75" rerouteNo="1" devices="tripinfo_veh16 routing_veh16" vType="veh_passenger" speedFactor="1.13" vaporized=""/>
    <tripinfo id="veh40" depart="94.00" departLane="127328085#12_1" departPos="5.10" departSpeed="0.00" departDelay="0.44" arrival="232.00" arrivalLane="349283350#5_0" arrivalPos="31.10" arrivalSpeed="9.35" duration="138.00" routeLength="1045.20" waitingTime="40.00" waitingCount="2" stopTime="0.00" timeLoss="63.84" rerouteNo="1" devices="tripinfo_veh40 routing_veh40" vType="veh_passenger" speedFactor="0.86" vaporized=""/>
    <tripinfo id="pt_bus_115:0.0" depart="15.00" departLane="373696528_0" departPos="12.10" departSpeed="0.00" departDelay="0.00" arrival="233.00" arrivalLane="78247504_0" arrivalPos="149.73" arrivalSpeed="16.24" duration="218.00" routeLength="1496.73" waitingTime="17.00" waitingCount="1" stopTime="69.00" timeLoss="58.98" rerouteNo="0" devices="tripinfo_pt_bus_115:0.0" vType="pt_bus" speedFactor="1.00" vaporized=""/>
    <tripinfo id="veh48" depart="113.00" departLane="-414785740#1_0" departPos="5.10" departSpeed="10.26" departDelay="0.73" arrival="239.00" arrivalLane="-38725424_0" arrivalPos="2.45" arrivalSpeed="8.26" duration="126.00" routeLength="1450.70" waitingTime="6.00" waitingCount="1" stopTime="0.00" timeLoss="25.32" rerouteNo="1" devices="tripinfo_veh48 routing_veh48" vType="veh_passenger" speedFactor="0.92" vaporized=""/>
    <tripinfo id="veh12" depart="29.00" departLane="192222487#3_0" departPos="5.10" departSpeed="0.00" departDelay="0.93" arrival="243.00" arrivalLane="261565232#3_0" arrivalPos="375.97" arrivalSpeed="12.65" duration="214.00" routeLength="2198.32" waitingTime="15.00" waitingCount="1" stopTime="0.00" timeLoss="41.94" rerouteNo="1" devices="tripinfo_veh12 routing_veh12" vType="veh_passenger" speedFactor="0.82" vaporized=""/>
    <tripinfo id="pt_trolleybus_99:1.0" depart="201.00" departLane="261657003#2_0" departPos="12.10" departSpeed="0.00" departDelay="0.00" arrival="247.00" arrivalLane="261657003#2_0" arrivalPos="67.00" arrivalSpeed="8.86" duration="46.00" routeLength="54.90" waitingTime="0.00" waitingCount="0" stopTime="30.00" timeLoss="12.45" rerouteNo="0" devices="tripinfo_pt_trolleybus_99:1.0" vType="pt_trolleybus" speedFactor="1.00" vaporized=""/>
    <tripinfo id="bus16" depart="105.00" departLane="42578518#0_0" departPos="12.10" departSpeed="0.00" departDelay="0.21" arrival="250.00" arrivalLane="192222461#3_1" arrivalPos="126.98" arrivalSpeed="16.38" duration="145.00" routeLength="1972.58" waitingTime="0.00" waitingCount="0" stopTime="0.00" timeLoss="19.60" rerouteNo="1" devices="tripinfo_bus16 routing_bus16" vType="bus_bus" speedFactor="1.00" vaporized=""/>
    <tripinfo id="bus0" depart="0.00" departLane="349283323#2_1" departPos="12.10" departSpeed="0.00" departDelay="0.00" arrival="252.00" arrivalLane="-114835839#0_0" arrivalPos="140.04" arrivalSpeed="13.82" duration="252.00" routeLength="2420.42" waitingTime="42.00" waitingCount="2" stopTime="0.00" timeLoss="90.88" rerouteNo="1" devices="tripinfo_bus0 routing_bus0" vType="bus_bus" speedFactor="1.00" vaporized=""/>
    <tripinfo id="bus10" depart="66.00" departLane="38766221#0_1" departPos="12.10" departSpeed="11.12" departDelay="0.51" arrival="252.00" arrivalLane="349283311#0_0" arrivalPos="168.24" arrivalSpeed="10.63" duration="186.00" routeLength="2485.94" waitingTime="5.00" waitingCount="1" stopTime="0.00" timeLoss="28.37" rerouteNo="1" devices="tripinfo_bus10 routing_bus10" vType="bus_bus" speedFactor="1.00" vaporized=""/>
    <tripinfo id="veh17" depart="40.00" departLane="-30500033#1_0" departPos="5.10" departSpeed="0.00" departDelay="0.24" arrival="254.00" arrivalLane="41309828_0" arrivalPos="114.04" arrivalSpeed="4.84" duration="214.00" routeLength="1663.80" waitingTime="10.00" waitingCount="1" stopTime="0.00" timeLoss="47.13" rerouteNo="1" devices="tripinfo_veh17 routing_veh17" vType="veh_passenger" speedFactor="0.88" vaporized=""/>
    <tripinfo id="bus15" depart="99.00" departLane="414841232#1_0" departPos="12.09" departSpeed="0.00" departDelay="0.76" arrival="259.00" arrivalLane="287246976#0_0" arrivalPos="95.48" arrivalSpeed="16.29" duration="160.00" routeLength="1680.62" waitingTime="11.00" waitingCount="2" stopTime="0.00" timeLoss="56.68" rerouteNo="1" devices="tripinfo_bus15 routing_bus15" vType="bus_bus" speedFactor="1.00" vaporized=""/>
    <tripinfo id="veh66" depart="157.00" departLane="104071737#0_1" departPos="5.10" departSpeed="0.00" departDelay="2.63" arrival="264.00" arrivalLane="313864612#1_1" arrivalPos="6.44" arrivalSpeed="15.35" duration="107.00" routeLength="1291.20" waitingTime="0.00" waitingCount="0" stopTime="0.00" timeLoss="19.21" rerouteNo="1" devices="tripinfo_veh66 routing_veh66" vType="veh_passenger" speedFactor="0.94" vaporized=""/>
    <tripinfo id="veh91" depart="213.00" departLane="-69585283#4_0" departPos="5.10" departSpeed="0.00" departDelay="0.16" arrival="264.00" arrivalLane="170096909#4_0" arrivalPos="60.74" arrivalSpeed="16.31" duration="51.00" routeLength="563.08" waitingTime="0.00" waitingCount="0" stopTime="0.00" timeLoss="16.79" rerouteNo="1" devices="tripinfo_veh91 routing_veh91" vType="veh_passenger" speedFactor="1.02" vaporized=""/>
    <tripinfo id="veh29" depart="68.00" departLane="37834172#0_0" departPos="0.19" departSpeed="0.00" departDelay="0.17" arrival="270.00" arrivalLane="-188335311#3_0" arrivalPos="80.64" arrivalSpeed="17.78" duration="202.00" routeLength="2615.47" waitingTime="0.00" waitingCount="0" stopTime="0.00" timeLoss="23.18" rerouteNo="1" devices="tripinfo_veh29 routing_veh29" vType="veh_passenger" speedFactor="1.08" vaporized=""/>
    <tripinfo id="veh15" depart="36.00" departLane="38809001#4_0" departPos="5.10" departSpeed="0.00" departDelay="0.92" arrival="272.00" arrivalLane="-69585283#3_0" arrivalPos="87.92" arrivalSpeed="15.35" duration="236.00" routeLength="2801.19" waitingTime="18.00" waitingCount="1" stopTime="0.00" timeLoss="45.28" rerouteNo="1" devices="tripinfo_veh15 routing_veh15" vType="veh_passenger" speedFactor="0.99" vaporized=""/>
    <tripinfo id="veh73" depart="171.00" departLane="287544278#5_0" departPos="5.10" departSpeed="0.00" departDelay="0.26" arrival="273.00" arrivalLane="38809001#1_1" arrivalPos="68.16" arrivalSpeed="15.86" duration="102.00" routeLength="1389.83" waitingTime="0.00" waitingCount="0" stopTime="0.00" timeLoss="15.41" rerouteNo="1" devices="tripinfo_veh73 routing_veh73" vType="veh_passenger" speedFactor="0.98" vaporized=""/>
    <tripinfo id="veh32" depart="75.00" departLane="-289115589#4_0" departPos="5.10" departSpeed="0.00" departDelay="0.15" arrival="274.00" arrivalLane="332227167#0_0" arrivalPos="57.72" arrivalSpeed="10.77" duration="199.00" routeLength="1542.36" waitingTime="50.00" waitingCount="1" stopTime="0.00" timeLoss="74.99" rerouteNo="1" devices="tripinfo_veh32 routing_veh32" vType="veh_passenger" speedFactor="0.82" vaporized=""/>
    <tripinfo id="pt_bus_3:0.0" depart="131.00" departLane="373696528_0" departPos="12.10" departSpeed="0.00" departDelay="0.00" arrival="274.00" arrivalLane="38809000#2_1" arrivalPos="155.06" arrivalSpeed="16.37" duration="143.00" routeLength="892.13" waitingTime="27.00" waitingCount="1" stopTime="30.00" timeLoss="59.25" rerouteNo="0" devices="tripinfo_pt_bus_3:0.0" vType="pt_bus" speedFactor="1.00" vaporized=""/>
    <tripinfo id="veh1" depart="3.00" departLane="-37834172#5_0" departPos="5.10" departSpeed="0.00" departDelay="0.66" arrival="277.00" arrivalLane="170096909#4_0" arrivalPos="60.74" arrivalSpeed="16.57" duration="274.00" routeLength="3234.54" waitingTime="21.00" waitingCount="4" stopTime="0.00" timeLoss="83.75" rerouteNo="1" devices="tripinfo_veh1 routing_veh1" vType="veh_passenger" speedFactor="1.07" vaporized=""/>
    <tripinfo id="veh9" depart="22.00" departLane="1370340546_1" departPos="5.10" departSpeed="0.00" departDelay="0.95" arrival="281.00" arrivalLane="-289115591#1_0" arrivalPos="66.24" arrivalSpeed="12.92" duration="259.00" routeLength="2654.90" waitingTime="35.00" waitingCount="2" stopTime="0.00" timeLoss="68.79" rerouteNo="1" devices="tripinfo_veh9 routing_veh9" vType="veh_passenger" speedFactor="0.84" vaporized=""/>
    <tripinfo id="veh39" depart="92.00" departLane="454548726_1" departPos="5.10" departSpeed="6.33" departDelay="0.78" arrival="281.00" arrivalLane="414841238#4_0" arrivalPos="89.30" arrivalSpeed="15.08" duration="189.00" routeLength="2051.79" waitingTime="23.00" waitingCount="3" stopTime="0.00" timeLoss="51.04" rerouteNo="1" devices="tripinfo_veh39 routing_veh39" vType="veh_passenger" speedFactor="0.92" vaporized=""/>
    <tripinfo id="veh71" depart="167.00" departLane="192222453_1" departPos="0.20" departSpeed="0.00" departDelay="0.93" arrival="281.00" arrivalLane="148113999#1_0" arrivalPos="7.37" arrivalSpeed="15.37" duration="114.00" routeLength="702.32" waitingTime="58.00" waitingCount="2" stopTime="0.00" timeLoss="69.55" rerouteNo="1" devices="tripinfo_veh71 routing_veh71" vType="veh_passenger" speedFactor="1.00" vaporized=""/>
    <tripinfo id="veh11" depart="26.00" departLane="38725426_0" departPos="5.10" departSpeed="1.00" departDelay="0.27" arrival="283.00" arrivalLane="287246976#0_1" arrivalPos="95.48" arrivalSpeed="15.87" duration="257.00" routeLength="2975.75" waitingTime="41.00" waitingCount="4" stopTime="0.00" timeLoss="75.44" rerouteNo="1" devices="tripinfo_veh11 routing_veh11" vType="veh_passenger" speedFactor="0.99" vaporized=""/>
    <tripinfo id="veh51" depart="120.00" departLane="151974260#4_1" departPos="5.10" departSpeed="0.00" departDelay="0.71" arrival="285.00" arrivalLane="981597901_1" arrivalPos="451.29" arrivalSpeed="18.40" duration="165.00" routeLength="2399.16" waitingTime="8.00" waitingCount="1" stopTime="0.00" timeLoss="34.38" rerouteNo="1" devices="tripinfo_veh51 routing_veh51" vType="veh_passenger" speedFactor="1.14" vaporized=""/>
    <tripinfo id="veh6" depart="15.00" departLane="287544278#3_0" departPos="5.10" departSpeed="0.00" departDelay="0.97" arrival="286.00" arrivalLane="37834172#1_0" arrivalPos="165.18" arrivalSpeed="13.85" duration="271.00" routeLength="3179.05" waitingTime="40.00" waitingCount="1" stopTime="0.00" timeLoss="72.37" rerouteNo="1" devices="tripinfo_veh6 routing_veh6" vType="veh_passenger" speedFactor="1.03" vaporized=""/>
    <tripinfo id="veh20" depart="47.00" departLane="347995180#6_0" departPos="5.10" departSpeed="0.00" departDelay="0.22" arrival="287.00" arrivalLane="37908526_1" arrivalPos="15.72" arrivalSpeed="17.62" duration="240.00" routeLength="2898.54" waitingTime="28.00" waitingCount="2" stopTime="0.00" timeLoss="70.62" rerouteNo="1" devices="tripinfo_veh20 routing_veh20" vType="veh_passenger" speedFactor="1.10" vaporized=""/>
    <tripinfo id="veh63" depart="148.00" departLane="103999078#0_0" departPos="5.10" departSpeed="0.00" departDelay="0.65" arrival="289.00" arrivalLane="-362223413_0" arrivalPos="64.75" arrivalSpeed="18.08" duration="141.00" routeLength="1454.36" waitingTime="26.00" waitingCount="2" stopTime="0.00" timeLoss="54.46" rerouteNo="1" devices="tripinfo_veh63 routing_veh63" vType="veh_passenger" speedFactor="1.16" vaporized=""/>
    <tripinfo id="veh33" depart="78.00" departLane="-38377939#8_0" departPos="5.10" departSpeed="0.00" departDelay="0.81" arrival="294.00" arrivalLane="38725440_0" arrivalPos="361.61" arrivalSpeed="13.26" duration="216.00" routeLength="2141.30" waitingTime="35.00" waitingCount="2" stopTime="0.00" timeLoss="63.61" rerouteNo="1" devices="tripinfo_veh33 routing_veh33" vType="veh_passenger" speedFactor="1.01" vaporized=""/>
    <tripinfo id="veh8" depart="19.00" departLane="414841236#1_1" departPos="5.10" departSpeed="0.00" departDelay="0.29" arrival="298.00" arrivalLane="38766221#4_1" arrivalPos="38.18" arrivalSpeed="14.26" duration="279.00" routeLength="2236.23" waitingTime="64.00" waitingCount="3" stopTime="0.00" timeLoss="108.27" rerouteNo="1" devices="tripinfo_veh8 routing_veh8" vType="veh_passenger" speedFactor="0.88" vaporized=""/>
    <tripinfo id="bus9" depart="59.00" departLane="38766221#1_0" departPos="12.10" departSpeed="0.00" departDelay="0.06" arrival="299.00" arrivalLane="-103999078#1_0" arrivalPos="67.20" arrivalSpeed="13.51" duration="240.00" routeLength="2571.71" waitingTime="21.00" waitingCount="2" stopTime="0.00" timeLoss="89.70" rerouteNo="1" devices="tripinfo_bus9 routing_bus9" vType="bus_bus" speedFactor="1.00" vaporized=""/>
    <tripinfo id="bus18" depart="118.00" departLane="-261565232#1_0" departPos="12.10" departSpeed="0.00" departDelay="0.12" arrival="299.00" arrivalLane="-38725429_0" arrivalPos="2.82" arrivalSpeed="6.40" duration="181.00" routeLength="1980.53" waitingTime="22.00" waitingCount="2" stopTime="0.00" timeLoss="59.19" rerouteNo="1" devices="tripinfo_bus18 routing_bus18" vType="bus_bus" speedFactor="1.00" vaporized=""/>
    <tripinfo id="veh2" depart="5.00" departLane="357520680#0_0" departPos="5.10" departSpeed="0.00" departDelay="0.32" arrival="299.00" arrivalLane="38377939#2_0" arrivalPos="30.61" arrivalSpeed="18.22" duration="294.00" routeLength="3090.26" waitingTime="71.00" waitingCount="4" stopTime="0.00" timeLoss="129.48" rerouteNo="1" devices="tripinfo_veh2 routing_veh2" vType="veh_passenger" speedFactor="1.16" vaporized=""/>
    <tripinfo id="veh86" depart="202.00" departLane="103999087#4_0" departPos="5.10" departSpeed="0.00" departDelay="0.85" arrival="305.00" arrivalLane="-362223416#1_0" arrivalPos="73.95" arrivalSpeed="14.59" duration="103.00" routeLength="1313.34" waitingTime="4.00" waitingCount="1" stopTime="0.00" timeLoss="24.22" rerouteNo="1" devices="tripinfo_veh86 routing_veh86" vType="veh_passenger" speedFactor="1.03" vaporized=""/>
    <tripinfo id="bus20" depart="131.00" departLane="349283316#2_0" departPos="12.10" departSpeed="0.00" departDelay="0.02" arrival="307.00" arrivalLane="-532992594#0_0" arrivalPos="10.66" arrivalSpeed="10.37" duration="176.00" routeLength="2073.04" waitingTime="0.00" waitingCount="0" stopTime="0.00" timeLoss="37.57" rerouteNo="1" devices="tripinfo_bus20 routing_bus20" vType="bus_bus" speedFactor="1.00" vaporized=""/>
    <tripinfo id="veh44" depart="103.00" departLane="171989082_0" departPos="5.10" departSpeed="7.44" departDelay="0.09" arrival="307.00" arrivalLane="349283311#2_1" arrivalPos="74.69" arrivalSpeed="12.17" duration="204.00" routeLength="2424.59" waitingTime="32.00" waitingCount="3" stopTime="0.00" timeLoss="63.84" rerouteNo="1" devices="tripinfo_veh44 routing_veh44" vType="veh_passenger" speedFactor="1.12" vaporized=""/>
    <tripinfo id="pt_bus_60小:1.0" depart="58.00" departLane="1155202125_0" departPos="12.10" departSpeed="0.00" departDelay="0.00" arrival="308.00" arrivalLane="38809000#2_1" arrivalPos="155.06" arrivalSpeed="16.25" duration="250.00" routeLength="1554.90" waitingTime="31.00" waitingCount="4" stopTime="58.00" timeLoss="98.73" rerouteNo="0" devices="tripinfo_pt_bus_60小:1.0" vType="pt_bus" speedFactor="1.00" vaporized=""/>
    <tripinfo id="veh70" depart="164.00" departLane="356841559#0_0" departPos="5.10" departSpeed="0.00" departDelay="0.27" arrival="309.00" arrivalLane="-69585283#7_0" arrivalPos="92.56" arrivalSpeed="16.85" duration="145.00" routeLength="1824.71" waitingTime="0.00" waitingCount="0" stopTime="0.00" timeLoss="29.05" rerouteNo="1" devices="tripinfo_veh70 routing_veh70" vType="veh_passenger" speedFactor="1.08" vaporized=""/>
    <tripinfo id="veh46" depart="108.00" departLane="313864611#3_0" departPos="5.10" departSpeed="0.00" departDelay="0.41" arrival="314.00" arrivalLane="454548725#0_1" arrivalPos="24.06" arrivalSpeed="11.11" duration="206.00" routeLength="2356.01" waitingTime="14.00" waitingCount="1" stopTime="0.00" timeLoss="37.24" rerouteNo="1" devices="tripinfo_veh46 routing_veh46" vType="veh_passenger" speedFactor="0.85" vaporized=""/>
    <tripinfo id="veh14" depart="33.00" departLane="-192222453_1" departPos="0.20" departSpeed="0.00" departDelay="0.25" arrival="316.00" arrivalLane="595157595#0_1" arrivalPos="50.86" arrivalSpeed="15.13" duration="283.00" routeLength="2500.45" waitingTime="53.00" waitingCount="2" stopTime="0.00" timeLoss="104.93" rerouteNo="1" devices="tripinfo_veh14 routing_veh14" vType="veh_passenger" speedFactor="0.94" vaporized=""/>
    <tripinfo id="veh34" depart="80.00" departLane="-347995179#0_1" departPos="5.10" departSpeed="0.00" departDelay="0.48" arrival="317.00" arrivalLane="192222450#4_0" arrivalPos="42.28" arrivalSpeed="18.60" duration="237.00" routeLength="2851.76" waitingTime="46.00" waitingCount="3" stopTime="0.00" timeLoss="83.30" rerouteNo="1" devices="tripinfo_veh34 routing_veh34" vType="veh_passenger" speedFactor="1.15" vaporized=""/>
    <tripinfo id="veh61" depart="143.00" departLane="179483091#0_0" departPos="5.10" departSpeed="0.00" departDelay="0.32" arrival="317.00" arrivalLane="-103999107#1_0" arrivalPos="233.71" arrivalSpeed="11.22" duration="174.00" routeLength="2231.60" waitingTime="0.00" waitingCount="0" stopTime="0.00" timeLoss="15.41" rerouteNo="1" devices="tripinfo_veh61 routing_veh61" vType="veh_passenger" speedFactor="0.88" vaporized=""/>
    <tripinfo id="pt_bus_60小:0.0" depart="55.00" departLane="373696528_0" departPos="12.10" departSpeed="0.00" departDelay="0.00" arrival="318.00" arrivalLane="78247504_0" arrivalPos="149.73" arrivalSpeed="16.23" duration="263.00" routeLength="1496.73" waitingTime="47.00" waitingCount="5" stopTime="51.00" timeLoss="121.42" rerouteNo="0" devices="tripinfo_pt_bus_60小:0.0" vType="pt_bus" speedFactor="1.00" vaporized=""/>