<?xml version="1.0" encoding="UTF-8"?>

<!-- generated on 2025-09-20 14:52:26 by Eclipse SUMO sumo Version 1.24.0
<sumoConfiguration xmlns:xsi="http://www.w3.org/2001/XMLSchema-instance" xsi:noNamespaceSchemaLocation="http://sumo.dlr.de/xsd/sumoConfiguration.xsd">

    <input>
        <net-file value="C:\Program Files (x86)\Eclipse\Sumo\tools\2025-09-20-14-52-18\osm.net.xml.gz"/>
        <route-files value="C:\Program Files (x86)\Eclipse\Sumo\tools\2025-09-20-14-52-18\trips.trips.xml"/>
        <additional-files value="C:\Program Files (x86)\Eclipse\Sumo\tools\2025-09-20-14-52-18\osm_stops.add.xml"/>
    </input>

    <output>
        <vehroute-output value="C:\Program Files (x86)\Eclipse\Sumo\tools\2025-09-20-14-52-18\vehroutes.xml"/>
        <stop-output value="C:\Program Files (x86)\Eclipse\Sumo\tools\2025-09-20-14-52-18\stopinfos.xml"/>
    </output>

    <time>
        <begin value="0.0"/>
    </time>

    <processing>
        <ignore-route-errors value="true"/>
        <time-to-teleport.disconnected value="0"/>
    </processing>

    <routing>
        <device.rerouting.adaptation-interval value="0"/>
    </routing>

    <report>
        <aggregate-warnings value="5"/>
        <error-log value="C:\Program Files (x86)\Eclipse\Sumo\tools\2025-09-20-14-52-18\trips.trips.xml.errorlog"/>
        <no-step-log value="true"/>
    </report>

</sumoConfiguration>
-->

<routes xmlns:xsi="http://www.w3.org/2001/XMLSchema-instance" xsi:noNamespaceSchemaLocation="http://sumo.dlr.de/xsd/routes_file.xsd">
    <vehicle id="2_bus_115:0" type="pt_bus" depart="15.00" departLane="0" arrival="224.00">
        <route edges="373696528 981843206#0 981843206#1 1370340546 595157595#0 130688502 38809001#0 38809001#1 38809001#2 38809001#3 38809001#4 1155202666#0 135082497#0 135082497#1 1155202127#1 78247504"/>
        <stop busStop="2917832671" duration="30.00"/>
        <stop busStop="1643955249" duration="30.00"/>
    </vehicle>

    <vehicle id="30_trolleybus_99:1" type="pt_trolleybus" depart="201.00" departLane="0" arrival="247.00">
        <route edges="261657003#2"/>
        <stop busStop="9469052117" duration="30.00"/>
    </vehicle>

    <vehicle id="17_bus_3:0" type="pt_bus" depart="131.00" departLane="0" arrival="277.00">
        <route edges="373696528 981843206#0 981843206#1 1370340546 52936182 38809000#0 38809000#1 38809000#2"/>
        <stop busStop="2917832671" duration="30.00"/>
    </vehicle>

    <vehicle id="12_bus_69:0" type="pt_bus" depart="98.00" departLane="0" arrival="299.00">
        <route edges="866853351#0 866853351#1 866853351#2 37908503#0 37908503#2 37908503#3 37908503#4 414841236#0 414841236#1 414841236#3 414841236#4 414841236#5 414841236#7 587766767"/>
        <stop busStop="3227037442" duration="30.00"/>
        <stop busStop="2911646475" duration="30.00"/>
    </vehicle>

    <vehicle id="9_bus_60С:1" type="pt_bus" depart="58.00" departLane="0" arrival="310.00">
        <route edges="1155202125 192222457 179481566#0 1155202665#0 1155202665#1 192222461#0 192222461#2 192222461#3 192222461#4 192222461#5 154984458 981843205#0 38809000#0 38809000#1 38809000#2"/>
        <stop busStop="1643998027" duration="30.00"/>
        <stop busStop="1643999455" duration="30.00"/>
    </vehicle>

    <vehicle id="8_bus_60С:0" type="pt_bus" depart="55.00" departLane="0" arrival="330.00">
        <route edges="373696528 981843206#0 981843206#1 1370340546 595157595#0 130688502 38809001#0 38809001#1 38809001#2 38809001#3 38809001#4 1155202666#0 135082497#0 135082497#1 1155202127#1 78247504"/>
        <stop busStop="2917832671" duration="30.00"/>
        <stop busStop="1643955249" duration="30.00"/>
    </vehicle>

    <vehicle id="11_trolleybus_7:0" type="pt_trolleybus" depart="93.00" departLane="0" arrival="363.00">
        <route edges="-287544278#0 -38377939#10 -38377939#9 -38377939#8 -38377939#6 -38377939#4 -38377939#3 -38377939#2 -38377939#1 38377936 129557734 130688502 38809001#0 38809001#1 38809001#2 38809001#3 38809001#4 1155202666#0 135082497#0 135082497#1 1155202127#1 78247504"/>
        <stop busStop="-2152940201" duration="30.00"/>
        <stop busStop="-2548254261" duration="30.00"/>
        <stop busStop="1643955249" duration="30.00"/>
    </vehicle>

    <vehicle id="37_bus_54:0" type="pt_bus" depart="253.00" departLane="0" arrival="394.00">
        <route edges="378143958#0 378143958#1 378143958#2 130688554 130688560 172492284#0 172492284#1 37908462#0 37908462#1 37908462#2 37908462#3 164790872"/>
        <stop busStop="3052536276" duration="30.00"/>
        <stop busStop="1771199566" duration="30.00"/>
    </vehicle>

    <vehicle id="13_bus_49:0" type="pt_bus" depart="102.00" departLane="0" arrival="397.00">
        <route edges="373696528 981843206#0 981843206#1 1370340546 595157595#0 130688502 38809001#0 38809001#1 38809001#2 38809001#3 38809001#4 1155202666#0 135082497#0 135082497#1 1155202127#1 78247504"/>
        <stop busStop="2917832671" duration="30.00"/>
        <stop busStop="1643955249" duration="30.00"/>
    </vehicle>

    <vehicle id="32_bus_111:1" type="pt_bus" depart="218.00" departLane="0" arrival="416.00">
        <route edges="373696528 981843206#0 981843206#1 1370340546 595157595#0 130688502 38809001#0 38809001#1 38809001#2 38809001#3 38809001#4 1155202666#0 135082497#0 135082497#1 1155202127#1 78247504"/>
        <stop busStop="1643955249" duration="30.00"/>
    </vehicle>

    <vehicle id="3_bus_95:0" type="pt_bus" depart="17.00" departLane="0" arrival="436.00">
        <route edges="1155202125 192222457 179481566#0 1155202665#0 1155202665#1 -192222450#6 -192222450#4 -192222450#2 -192222450#1 -192222450#0 -414841238#4 -414841238#3 -414841238#2 -414841238#1 -414841238#0 -981597899#1 -981597899#0 -981597898#3 -981597898#2 -981597898#1 -981597898#0 -192222453 414841236#0 414841236#1 414841236#3 414841236#4 414841236#5 414841236#7 587766767"/>
        <stop busStop="1643998027" duration="30.00"/>
        <stop busStop="-4485478415" duration="30.00"/>
        <stop busStop="-2911646473" duration="30.00"/>
        <stop busStop="-2911646478" duration="30.00"/>
        <stop busStop="2911646475" duration="30.00"/>
    </vehicle>

    <vehicle id="20_bus_9КС:0" type="pt_bus" depart="137.00" departLane="0" arrival="472.00">
        <route edges="373696528 981843206#0 981843206#1 1370340546 595157595#0 130688502 38809001#0 38809001#1 38809001#2 38809001#3 38809001#4 1155202666#0 135082497#0 135082497#1 1155202127#1 78247504"/>
        <stop busStop="2917832671" duration="30.00"/>
        <stop busStop="1643955249" duration="30.00"/>
    </vehicle>

    <vehicle id="18_bus_37А:0" type="pt_bus" depart="132.00" departLane="0" arrival="492.00">
        <route edges="454548726 151974260#0 151974260#1 151974260#3 151974260#4 289115600#0 289115600#1 289115600#3 38809001#0 38809001#1 38809001#2 38809001#3 38809001#4 1155202666#0 135082497#0 135082497#1 1155202127#1 78247504"/>
        <stop busStop="1648141156" duration="30.00"/>
        <stop busStop="2908797330" duration="30.00"/>
        <stop busStop="2908797328" duration="30.00"/>
        <stop busStop="1643955249" duration="30.00"/>
    </vehicle>

    <vehicle id="16_bus_49:1" type="pt_bus" depart="131.00" departLane="0" arrival="509.00">
        <route edges="1155202125 192222457 179481566#0 1155202665#0 1155202665#1 192222461#0 192222461#2 192222461#3 192222461#4 192222461#5 154984458 981843205#0 38809000#0 38809000#1 38809000#2"/>
        <stop busStop="1643998027" duration="30.00"/>
        <stop busStop="1643999455" duration="30.00"/>
    </vehicle>

    <vehicle id="10_trolleybus_99:0" type="pt_trolleybus" depart="64.00" departLane="0" arrival="517.00">
        <route edges="1155202125 192222457 179481566#0 1155202665#0 1155202665#1 192222461#0 192222461#2 192222461#3 192222461#4 192222461#5 154984458 129557734 37908526 287246976#0 287246976#2 287246976#3 378276857#1 287246974#0 287246974#2 287246974#3 287246974#4 287246974#6 454548725#0"/>
        <stop busStop="1643998027" duration="30.00"/>
        <stop busStop="1643999455" duration="30.00"/>
        <stop busStop="3366023907" duration="30.00"/>
        <stop busStop="1648142128" duration="30.00"/>
        <stop busStop="1674349139" duration="30.00"/>
    </vehicle>

    <vehicle id="25_bus_37:0" type="pt_bus" depart="165.00" departLane="0" arrival="523.00">
        <route edges="-38373347 65758492#0 65758492#1 1190628393 188335300#0 188335300#1 373696537 70004436 37908529 37908464#0 37908464#1 37908464#2 37908464#3 130688553 130688561 130688548 261657003#0 261657003#1 261657003#2 261657003#2 1027066849#1"/>
        <stop busStop="-9089520321" duration="30.00"/>
        <stop busStop="1828274452" duration="30.00"/>
        <stop busStop="1771199567" duration="30.00"/>
        <stop busStop="3052536277" duration="30.00"/>
        <stop busStop="9469052117" duration="30.00"/>
        <stop busStop="1849564731" duration="30.00"/>
    </vehicle>

    <vehicle id="51_bus_15:1" type="pt_bus" depart="388.00" departLane="0" arrival="545.00">
        <route edges="174088693 70004437 1190628391 373696537 70004436 37908529 37908464#0 37908464#1 37908464#2 37908464#3 130688553 130688561 130688548 261657003#0 261657003#1 261657003#2 1027066849#1"/>
        <stop busStop="1771199567" duration="30.00"/>
        <stop busStop="3052536277" duration="30.00"/>
    </vehicle>

    <vehicle id="40_bus_80:1" type="pt_bus" depart="326.00" departLane="0" arrival="548.00">
        <route edges="373696528 981843206#0 981843206#1 1370340546 595157595#0 130688502 38809001#0 38809001#1 38809001#2 38809001#3 38809001#4 1155202666#0 135082497#0 135082497#1 1155202127#1 78247504"/>
        <stop busStop="2917832671" duration="30.00"/>
        <stop busStop="1643955249" duration="30.00"/>
    </vehicle>

    <vehicle id="26_bus_37:1" type="pt_bus" depart="166.00" departLane="0" arrival="562.00">
        <route edges="179481566#0 1155202665#0 1155202665#1 192222461#0 192222461#2 192222461#3 192222461#4 192222461#5 154984458 129557734 37908526 287246976#0 287246976#2 287246976#3 378276857#1 287246974#0 287246974#2 287246974#3 287246974#4 287246974#6 454548725#0"/>
        <stop busStop="1643998027" duration="30.00"/>
        <stop busStop="1643999455" duration="30.00"/>
        <stop busStop="3366023907" duration="30.00"/>
        <stop busStop="1648142128" duration="30.00"/>
        <stop busStop="1674349139" duration="30.00"/>
    </vehicle>

    <vehicle id="34_bus_27:1" type="pt_bus" depart="227.00" departLane="0" arrival="571.00">
        <route edges="454548726 151974260#0 151974260#1 151974260#3 151974260#4 289115600#0 289115600#1 289115600#3 38809001#0 38809001#1 38809001#2 38809001#3 38809001#4 1155202666#0 135082497#0 135082497#1 1155202127#1 78247504"/>
        <stop busStop="1648141156" duration="30.00"/>
        <stop busStop="2908797330" duration="30.00"/>
        <stop busStop="2908797328" duration="30.00"/>
        <stop busStop="1643955249" duration="30.00"/>
    </vehicle>

    <vehicle id="4_bus_47:0" type="pt_bus" depart="19.00" departLane="0" arrival="602.00">
        <route edges="171989082 172492284#0 172492284#1 130688555 130688553 38766222 170096909#1 170096909#2 170096909#3 170096909#4 170096909#5 170096909#6 313864612#0 313864612#1 313864612#2 313864612#3 313864612#4 313864612#5 313864612#6 313864612#7 313864612#8 313864612#11 313864612#13 313864612#14 313864612#16 151974260#0 151974260#1 151974260#3 151974260#4 289115600#0 289115600#1 289115600#3 172606602 154984458 981843205#0 38809000#0 38809000#1 38809000#2"/>
        <stop busStop="1648120191" duration="30.00"/>
        <stop busStop="1648124816" duration="30.00"/>
        <stop busStop="1648127681" duration="30.00"/>
        <stop busStop="1648130838" duration="30.00"/>
        <stop busStop="1648137532" duration="30.00"/>
        <stop busStop="1648141156" duration="30.00"/>
        <stop busStop="2908797330" duration="30.00"/>
        <stop busStop="2908797328" duration="30.00"/>
    </vehicle>

    <vehicle id="55_bus_18:1" type="pt_bus" depart="410.00" departLane="0" arrival="606.00">
        <route edges="866853351#0 866853351#1 866853351#2 37908503#0 37908503#2 37908503#3 37908503#4 414841236#0 414841236#1 414841236#3 414841236#4 414841236#5 414841236#7 587766767"/>
        <stop busStop="3227037442" duration="30.00"/>
        <stop busStop="2911646475" duration="30.00"/>
    </vehicle>

    <vehicle id="54_bus_18:0" type="pt_bus" depart="406.00" departLane="0" arrival="617.00">
        <route edges="587766759#0 587766759#2 587766759#3 1105958338#0 1105958338#2 1105958338#3 1105958338#4 1105958338#6 1105958338#7 1105958338#8 984377833 192222487#0 192222487#2 192222487#3 192222487#4 28951980#0 28951980#1"/>
        <stop busStop="3227037452" duration="30.00"/>
        <stop busStop="3227037441" duration="30.00"/>
    </vehicle>

    <vehicle id="44_bus_110:1" type="pt_bus" depart="353.00" departLane="0" arrival="624.00">
        <route edges="373696528 981843206#0 981843206#1 1370340546 595157595#0 130688502 38809001#0 38809001#1 38809001#2 38809001#3 38809001#4 1155202666#0 135082497#0 135082497#1 1155202127#1 78247504"/>
        <stop busStop="2917832671" duration="30.00"/>
        <stop busStop="1643955249" duration="30.00"/>
    </vehicle>

    <vehicle id="23_bus_58В:0" type="pt_bus" depart="160.00" departLane="0" arrival="633.00">
        <route edges="454548726 127328085#0 127328085#2 127328085#3 127328085#4 127328085#5 127328085#6 127328085#7 127328085#9 127328085#10 127328085#11 127328085#12 179483091#0 179483091#2 179483091#3 188130796#0 188130796#1 188130796#2 313864611#0 313864611#2 313864611#3 313864611#4 313864611#5 130688548 130688564 130688554 130688560 172492284#0 172492284#1 37908462#0 37908462#1 37908462#2 37908462#3 164790872"/>
        <stop busStop="1648243506" duration="30.00"/>
        <stop busStop="1648244043" duration="30.00"/>
        <stop busStop="1648244580" duration="30.00"/>
        <stop busStop="1648250256" duration="30.00"/>
        <stop busStop="1648252258" duration="30.00"/>
        <stop busStop="1648253666" duration="30.00"/>
        <stop busStop="1771199566" duration="30.00"/>
    </vehicle>

    <vehicle id="31_bus_111:0" type="pt_bus" depart="204.00" departLane="0" arrival="643.00">
        <route edges="1155202125 192222457 179481566#0 1155202665#0 1155202665#1 192222461#0 192222461#2 192222461#3 192222461#4 192222461#5 154984458 981843205#0 38809000#0 38809000#1 38809000#2"/>
        <stop busStop="1643998027" duration="30.00"/>
        <stop busStop="1643999455" duration="30.00"/>
    </vehicle>

    <vehicle id="46_bus_120А:0" type="pt_bus" depart="365.00" departLane="0" arrival="648.00">
        <route edges="373696528 981843206#0 981843206#1 1370340546 595157595#0 130688502 38809001#0 38809001#1 38809001#2 38809001#3 38809001#4 1155202666#0 135082497#0 135082497#1 1155202127#1 78247504"/>
        <stop busStop="2917832671" duration="30.00"/>
        <stop busStop="1643955249" duration="30.00"/>
    </vehicle>

    <vehicle id="48_bus_5:0" type="pt_bus" depart="381.00" departLane="0" arrival="652.00">
        <route edges="866853351#0 866853351#1 866853351#2 37908503#0 37908503#2 37908503#3 37908503#4 414841236#0 414841236#1 414841236#3 414841236#4 414841236#5 414841236#7 -287544278#7 -287544278#6 -287544278#5 -287544278#4 -287544278#3 -287544278#2 -287544278#1 -287544278#0"/>
        <stop busStop="3227037442" duration="30.00"/>
        <stop busStop="2911646475" duration="30.00"/>
        <stop busStop="-2911646477" duration="30.00"/>
        <stop busStop="-2911646476" duration="30.00"/>
    </vehicle>

    <vehicle id="5_bus_47:1" type="pt_bus" depart="27.00" departLane="0" arrival="657.00">
        <route edges="373696528 981843206#0 981843206#1 1370340546 595157595#0 37908526 287246976#0 287246976#2 287246976#3 378276857#1 287246974#0 287246974#2 287246974#3 287246974#4 287246974#6 127328085#0 127328085#2 127328085#3 127328085#4 127328085#5 127328085#6 127328085#7 127328085#9 127328085#10 127328085#11 127328085#12 179483091#0 179483091#2 179483091#3 188130796#0 188130796#1 188130796#2 313864611#0 313864611#2 313864611#3 313864611#4 313864611#5 130688548 130688564 130688554 38284697"/>
        <stop busStop="2917832671" duration="30.00"/>
        <stop busStop="3366023907" duration="30.00"/>
        <stop busStop="1648142128" duration="30.00"/>
        <stop busStop="1648243506" duration="30.00"/>
        <stop busStop="1648244043" duration="30.00"/>
        <stop busStop="1648244580" duration="30.00"/>
        <stop busStop="1648250256" duration="30.00"/>
        <stop busStop="1648252258" duration="30.00"/>
        <stop busStop="1648253666" duration="30.00"/>
    </vehicle>

    <vehicle id="24_bus_58В:1" type="pt_bus" depart="160.00" departLane="0" arrival="669.00">
        <route edges="174088693 70004437 1190628391 373696537 70004436 37908529 37908464#0 37908464#1 37908464#2 37908464#3 130688553 38766222 170096909#1 170096909#2 170096909#3 170096909#4 170096909#5 170096909#6 313864612#0 313864612#1 313864612#2 313864612#3 313864612#4 313864612#5 313864612#6 313864612#7 313864612#8 313864612#11 313864612#13 313864612#14 313864612#16 454548725#0"/>
        <stop busStop="1771199567" duration="30.00"/>
        <stop busStop="1648120191" duration="30.00"/>
        <stop busStop="1648124816" duration="30.00"/>
        <stop busStop="1648127681" duration="30.00"/>
        <stop busStop="1648130838" duration="30.00"/>
        <stop busStop="1648137532" duration="30.00"/>
        <stop busStop="1674349139" duration="30.00"/>
    </vehicle>

    <vehicle id="59_bus_49Б:1" type="pt_bus" depart="437.00" departLane="0" arrival="700.00">
        <route edges="373696528 981843206#0 981843206#1 1370340546 595157595#0 130688502 38809001#0 38809001#1 38809001#2 38809001#3 38809001#4 1155202666#0 135082497#0 135082497#1 1155202127#1 78247504"/>
        <stop busStop="2917832671" duration="30.00"/>
        <stop busStop="1643955249" duration="30.00"/>
    </vehicle>

    <vehicle id="64_bus_69:1" type="pt_bus" depart="485.00" departLane="0" arrival="700.00">
        <route edges="587766759#0 587766759#2 587766759#3 1105958338#0 1105958338#2 1105958338#3 1105958338#4 1105958338#6 1105958338#7 1105958338#8 984377833 192222487#0 192222487#2 192222487#3 192222487#4 28951980#0 28951980#1"/>
        <stop busStop="3227037452" duration="30.00"/>
        <stop busStop="3227037441" duration="30.00"/>
    </vehicle>

    <vehicle id="70_bus_29:0" type="pt_bus" depart="535.00" departLane="0" arrival="720.00">
        <route edges="866853351#0 866853351#1 866853351#2 37908503#0 37908503#2 37908503#3 37908503#4 414841236#0 414841236#1 414841236#3 414841236#4 414841236#5 414841236#7 587766767"/>
        <stop busStop="3227037442" duration="30.00"/>
        <stop busStop="2911646475" duration="30.00"/>
    </vehicle>

    <vehicle id="19_bus_37А:1" type="pt_bus" depart="137.00" departLane="0" arrival="721.00">
        <route edges="1155202125 192222457 179481566#0 1155202665#0 1155202665#1 192222461#0 192222461#2 192222461#3 192222461#4 192222461#5 154984458 129557734 37908526 287246976#0 287246976#2 287246976#3 378276857#1 287246974#0 287246974#2 287246974#3 287246974#4 287246974#6 454548725#0"/>
        <stop busStop="1643998027" duration="30.00"/>
        <stop busStop="1643999455" duration="30.00"/>
        <stop busStop="3366023907" duration="30.00"/>
        <stop busStop="1648142128" duration="30.00"/>
        <stop busStop="1674349139" duration="30.00"/>
    </vehicle>

    <vehicle id="61_bus_64:1" type="pt_bus" depart="465.00" departLane="0" arrival="744.00">
        <route edges="373696528 981843206#0 981843206#1 1370340546 595157595#0 130688502 38809001#0 38809001#1 38809001#2 38809001#3 38809001#4 1155202666#0 135082497#0 135082497#1 1155202127#1 78247504"/>
        <stop busStop="2917832671" duration="30.00"/>
        <stop busStop="1643955249" duration="30.00"/>
    </vehicle>

    <vehicle id="74_bus_74:1" type="pt_bus" depart="574.00" departLane="0" arrival="753.00">
        <route edges="866853351#1 866853351#2 37908503#0 37908503#2 37908503#3 37908503#4 414841236#0 414841236#1 414841236#3 414841236#4 414841236#5"/>
        <stop busStop="3227037442" duration="30.00"/>
        <stop busStop="2911646475" duration="30.00"/>
    </vehicle>

    <vehicle id="14_bus_77:0" type="pt_bus" depart="119.00" departLane="0" arrival="778.00">
        <route edges="174088693 70004437 1190628391 373696537 37908522 104071737#0 104071737#1 104071737#2 104071737#3 104071737#5 104071737#6 289115601#0 289115601#2 347995181 347995182 362223418 188335314 349283316#0 349283316#2 349283316#3 349283350#0 349283350#1 349283350#2 349283350#4 349283350#5 287246975#0 287246975#1 287246975#2 289115600#0 289115600#1 289115600#3 38809001#0 38809001#1 38809001#2 38809001#3 38809001#4 1155202666#0 135082497#0 135082497#1 1155202127#1 78247504"/>
        <stop busStop="1828274452" duration="30.00"/>
        <stop busStop="1828281263" duration="30.00"/>
        <stop busStop="1828284271" duration="30.00"/>
        <stop busStop="1828286578" duration="30.00"/>
        <stop busStop="2908797330" duration="30.00"/>
        <stop busStop="2908797328" duration="30.00"/>
        <stop busStop="1643955249" duration="30.00"/>
    </vehicle>

    <vehicle id="41_bus_41:0" type="pt_bus" depart="331.00" departLane="0" arrival="805.00">
        <route edges="171989082 172492284#0 172492284#1 130688555 130688553 38766222 170096909#1 170096909#2 170096909#3 170096909#4 170096909#5 170096909#6 313864612#0 313864612#1 313864612#2 313864612#3 313864612#4 313864612#5 313864612#6 313864612#7 313864612#8 313864612#11 313864612#13 313864612#14 313864612#16 151974260#0 151974260#1 151974260#3 151974260#4 289115600#0 289115600#1 289115600#3 38809001#0 38809001#1 38809001#2 38809001#3 38809001#4 1155202666#0 135082497#0 135082497#1 1155202127#1 78247504"/>
        <stop busStop="1648141156" duration="30.00"/>
        <stop busStop="2908797330" duration="30.00"/>
        <stop busStop="2908797328" duration="30.00"/>
        <stop busStop="1643955249" duration="30.00"/>
    </vehicle>

    <vehicle id="15_bus_77:1" type="pt_bus" depart="125.00" departLane="0" arrival="812.00">
        <route edges="1155202125 192222457 179481566#0 1155202665#0 1155202665#1 192222461#0 192222461#2 192222461#3 192222461#4 192222461#5 154984458 129557734 37908526 287246976#0 287246976#2 287246976#3 378276857#1 349283323#0 349283323#1 349283323#2 349283323#3 349283329#0 349283329#2 349283329#3 349283329#4 1270880968#0 1270880968#1 1349720944 1363549211 69558465#1 69558465#2 347995180#0 347995180#1 347995180#3 347995180#4 347995180#6 347995180#7 37908529 164790871 164790872"/>
        <stop busStop="1643998027" duration="30.00"/>
        <stop busStop="1643999455" duration="30.00"/>
        <stop busStop="3366023907" duration="30.00"/>
        <stop busStop="1648142128" duration="30.00"/>
        <stop busStop="1828286575" duration="30.00"/>
        <stop busStop="1828284272" duration="30.00"/>
        <stop busStop="1846673387" duration="30.00"/>
    </vehicle>

    <vehicle id="39_bus_80:0" type="pt_bus" depart="321.00" departLane="0" arrival="822.00">
        <route edges="1155202125 192222457 179481566#0 1155202665#0 1155202665#1 192222461#0 192222461#2 192222461#3 192222461#4 192222461#5 154984458 981843205#0 38809000#0 38809000#1 38809000#2"/>
        <stop busStop="1643998027" duration="30.00"/>
        <stop busStop="1643999455" duration="30.00"/>
    </vehicle>

    <vehicle id="57_bus_28:1" type="pt_bus" depart="422.00" departLane="0" arrival="823.00">
        <route edges="171989082 172492284#0 172492284#1 37908462#0 37908462#1 37908462#2 37908462#3 164790872 70004437 1190628391 373696537 37908522 104071737#0 104071737#1 104071737#2 104071737#3 104071737#5 104071737#6 289115601#0 289115601#2 347995181 347995182 362223418 188335314"/>
        <stop busStop="3052536276" duration="30.00"/>
        <stop busStop="1771199566" duration="30.00"/>
        <stop busStop="1828274452" duration="30.00"/>
        <stop busStop="1828281263" duration="30.00"/>
        <stop busStop="1828284271" duration="30.00"/>
    </vehicle>

    <vehicle id="58_bus_49Б:0" type="pt_bus" depart="464.00" departLane="0" arrival="835.00">
        <route edges="179481566#0 1155202665#0 1155202665#1 192222461#0 192222461#2 192222461#3 192222461#4"/>
        <stop busStop="1643998027" duration="30.00"/>
        <stop busStop="1643999455" duration="30.00"/>
    </vehicle>

    <vehicle id="38_bus_54:1" type="pt_bus" depart="303.00" departLane="0" arrival="845.00">
        <route edges="174088693 70004437 1190628391 373696537 70004436 37908529 37908464#0 37908464#1 37908464#2 37908464#3 130688553 38766222 170096909#1 170096909#2 170096909#3 170096909#4 170096909#5 170096909#6 313864612#0 313864612#1 313864612#2 313864612#3 313864612#4 313864612#5 313864612#6 313864612#7 313864612#8 313864612#11 313864612#13 313864612#14 313864612#16 454548725#0"/>
        <stop busStop="1771199567" duration="30.00"/>
        <stop busStop="3052536277" duration="30.00"/>
        <stop busStop="1648120191" duration="30.00"/>
        <stop busStop="1648124816" duration="30.00"/>
        <stop busStop="1648127681" duration="30.00"/>
        <stop busStop="1648130838" duration="30.00"/>
        <stop busStop="1648137532" duration="30.00"/>
        <stop busStop="1674349139" duration="30.00"/>
    </vehicle>

    <vehicle id="29_trolleybus_7:1" type="pt_trolleybus" depart="193.00" departLane="0" arrival="847.00">
        <route edges="1155202125 192222457 179481566#0 1155202665#0 1155202665#1 -192222450#6 -192222450#4 -192222450#2 -192222450#1 -192222450#0 -414841238#4 -414841238#3 -414841238#2 -414841238#1 -414841238#0 -981597899#1 -981597899#0 -981597898#3 -981597898#2 -981597898#1 -981597898#0 -192222453 414841236#0 414841236#1 414841236#3 414841236#4 414841236#5 414841236#7 -287544278#7 -287544278#6 -287544278#5 -287544278#4 -287544278#3 -287544278#2 -287544278#1 -287544278#0"/>
        <stop busStop="1643998027" duration="30.00"/>
        <stop busStop="-2911646478" duration="30.00"/>
        <stop busStop="2911646475" duration="30.00"/>
        <stop busStop="-2911646477" duration="30.00"/>
        <stop busStop="-2911646476" duration="30.00"/>
    </vehicle>

    <vehicle id="0_bus_96:0" type="pt_bus" depart="3.00" departLane="0" arrival="870.00">
        <route edges="174088693 70004437 1190628391 373696537 37908522 104071737#0 104071737#1 104071737#2 104071737#3 104071737#5 104071737#6 289115601#0 289115601#2 347995181 347995182 362223418 188335314 349283316#0 349283316#2 349283316#3 349283350#0 349283350#1 349283350#2 349283350#4 349283350#5 287246975#0 287246975#1 287246975#2 289115600#0 289115600#1 289115600#3 38809001#0 38809001#1 38809001#2 38809001#3 38809001#4 1155202666#0 -192222450#6 -192222450#4 -192222450#2 -192222450#1 -192222450#0 -414841238#4 -414841238#3 -414841238#2 -414841238#1 -414841238#0 -981597899#1 -981597899#0 -981597898#3 -981597898#2 -981597898#1 -981597898#0 -192222453 984377833 192222487#0 192222487#2 192222487#3 192222487#4 28951980#0 28951980#1"/>
        <stop busStop="1828274452" duration="30.00"/>
        <stop busStop="1828281263" duration="30.00"/>
        <stop busStop="1828284271" duration="30.00"/>
        <stop busStop="1828286578" duration="30.00"/>
        <stop busStop="2908797330" duration="30.00"/>
        <stop busStop="2908797328" duration="30.00"/>
        <stop busStop="-4485478415" duration="30.00"/>
        <stop busStop="-2911646473" duration="30.00"/>
        <stop busStop="-2911646478" duration="30.00"/>
        <stop busStop="3227037441" duration="30.00"/>
    </vehicle>

    <vehicle id="21_bus_5А:0" type="pt_bus" depart="137.00" departLane="0" arrival="877.00">
        <route edges="378143958#0 378143958#1 378143958#2 130688554 130688560 172492284#0 172492284#1 130688555 130688553 38766222 170096909#1 170096909#2 170096909#3 170096909#4 170096909#5 170096909#6 313864612#0 313864612#1 313864612#2 313864612#3 313864612#4 313864612#5 313864612#6 313864612#7 313864612#8 313864612#11 313864612#13 313864612#14 313864612#16 151974260#0 151974260#1 151974260#3 151974260#4 289115600#0 289115600#1 289115600#3 38809001#0 38809001#1 38809001#2 38809001#3 38809001#4 1155202666#0 135082497#0 135082497#1 1155202127#1 78247504"/>
        <stop busStop="1648120191" duration="30.00"/>
        <stop busStop="1648124816" duration="30.00"/>
        <stop busStop="1648127681" duration="30.00"/>
        <stop busStop="1648130838" duration="30.00"/>
        <stop busStop="1648137532" duration="30.00"/>
        <stop busStop="1648141156" duration="30.00"/>
        <stop busStop="2908797330" duration="30.00"/>
        <stop busStop="2908797328" duration="30.00"/>
        <stop busStop="1643955249" duration="30.00"/>
    </vehicle>

    <vehicle id="73_bus_74:0" type="pt_bus" depart="567.00" departLane="0" arrival="892.00">
        <route edges="-38373347 65758492#0 65758492#1 1190628393 188335300#0 188335300#1 373696537 70004436 37908529 37908464#0 37908464#1 37908464#2 37908464#3 130688553 130688561 130688548 261657003#0 261657003#1 261657003#2 1027066849#1"/>
        <stop busStop="3665704206" duration="30.00"/>
        <stop busStop="1828274452" duration="30.00"/>
        <stop busStop="1771199567" duration="30.00"/>
        <stop busStop="3052536277" duration="30.00"/>
    </vehicle>

    <vehicle id="1_bus_96:1" type="pt_bus" depart="15.00" departLane="0" arrival="896.00">